
variable systemNsize equal 10
variable rndSeed equal 1234
variable Nrun equal 500000
variable Nstab equal 5000
variable NdumpStats equal 10
variable NdumpFrames equal 1000
variable Text equal 298.0
variable Pext equal 1.0

units real
    # g/mol, A, fs, Kcal/mol, K, atm, g/cm^3
atom_style full
read_data SPCE.data
  orthogonal box = (0 0 0) to (3.1 3.1 3.1)
  1 by 2 by 3 MPI processor grid
  reading atoms ...
  3 atoms
  scanning bonds ...
  2 = max bonds/atom
  scanning angles ...
  1 = max angles/atom
  reading bonds ...
  2 bonds
  reading angles ...
  1 angles
  2 = max # of 1-2 neighbors
  1 = max # of 1-3 neighbors
  1 = max # of 1-4 neighbors
  2 = max # of special neighbors
  special bonds CPU = 0.000551939 secs
  read_data CPU = 0.00340199 secs

replicate ${systemNsize} ${systemNsize} ${systemNsize}
replicate 10 ${systemNsize} ${systemNsize}
replicate 10 10 ${systemNsize}
replicate 10 10 10
  orthogonal box = (0 0 0) to (31 31 31)
  1 by 2 by 3 MPI processor grid
  3000 atoms
  2000 bonds
  1000 angles
  2 = max # of 1-2 neighbors
  1 = max # of 1-3 neighbors
  1 = max # of 1-4 neighbors
  2 = max # of special neighbors
  special bonds CPU = 0.000308037 secs
  replicate CPU = 0.00180793 secs

include SPCE.pot
# Original model from Berendsen et al, J Phys Chem 91:6269 (1987)
# Charges and geometry are specified in the ".data" file.

mass 1 1.008 # H
mass 2 15.9994 # O

#pair_style lj/cut/coul/dsf 0.05 10.0
#pair_style lj/cut/coul/long 10.0
    # LJ_Rcut (Coul_Rcut)
pair_style lj/cut/tip4p/long 2 1 1 1 0.15 12.0

pair_modify tail yes
    # assumtions and approximations:
    # 1) 3d bulk homogeneous liquid (+)
    # 2) RDF is unity beyond the cutoff (?)
    # 3) It's computed at the begining of the run, so N of particles shouldn't be changed (+)
    # 4) atoms don't feel additional energy but it's added to the PE etc
kspace_style pppm/tip4p 1.0e-5
    # accuracy - desired relative error in forces

pair_coeff 1 1 0.00000 0.000
pair_coeff 1 2 0.00000 0.000
    # TODO - I would put here the sizes of H and O atoms instead of one big LJ repulsion from the O atom. What "e" to choose is still a question.
pair_coeff 2 2 0.1550 3.1536
    # epsilon, sigma, [LJ_Rcut, [Coul_Rcut]]
    # distance between H and O is 1.0 so 3.166 > 1.0 accounts for the size of a molecule as a whole
    # I guess the major part in forces inside a molecule are indeed due to OH and HOH (angle) bondings, so computing LJ and Coul for them would be practically a waste of time so it may be ommitted. So I see only an optimizational reason to set LJ coefs to 0 for H atoms inside a molecule. However here (as far as I understand) we set all LJ coefs to 0. I understand LJ is a short-rage potential so its contribution can be neglegible compared to Coul, but it's not obvious for me why it actually is.
    # TODO - there might be a more correct way to ommit unnecessary interaction by using special_bond

bond_style harmonic
    # E = k(r-r0)^2
bond_coeff 1 0.0 1.0
    # bondID k r0
    # ? - how does k=0 make sense?
    # Is this to formaly bond atoms but actual bonding is done by rattle?

angle_style harmonic
angle_coeff 1 0.0 104.52
    # ? - same, how does k=0 make sense?


velocity all create ${Text} ${rndSeed}
velocity all create 298 ${rndSeed}
velocity all create 298 1234

fix removeMomentum all momentum 1 linear 1 1 1 angular
    # 1 - adjust the momentum every 1 timesteps
    # linear 1/0 1/0 1/0 - zero the P_x/y/z
    # angular - zero angular momentum (TODO - add "angular" here?)
    # scale - scale velocities after the adjustment so T is conserved (TODO - add "scale" here?)

fix stab_iso all npt temp ${Text} ${Text} $(50.0*dt) iso ${Pext} ${Pext} $(500.0*dt)
fix stab_iso all npt temp 298 ${Text} $(50.0*dt) iso ${Pext} ${Pext} $(500.0*dt)
fix stab_iso all npt temp 298 298 $(50.0*dt) iso ${Pext} ${Pext} $(500.0*dt)
fix stab_iso all npt temp 298 298 50 iso ${Pext} ${Pext} $(500.0*dt)
fix stab_iso all npt temp 298 298 50 iso 1 ${Pext} $(500.0*dt)
fix stab_iso all npt temp 298 298 50 iso 1 1 $(500.0*dt)
fix stab_iso all npt temp 298 298 50 iso 1 1 500
    # Tstart,Tstop = external temperature at start/end of run
    # Tdamp = temperature damping parameter (time units)
    # temp - for thermostat, iso - for barostat

fix stab_constrain all rattle 1.0e-5 100 0 b 1 a 1
  0 = # of size 2 clusters
  0 = # of size 3 clusters
  0 = # of size 4 clusters
  1000 = # of frozen angles
  find clusters CPU = 0.000288963 secs
    # fix ID group-ID shake tol iter N constraint1 value1 ...
    # iter - max # of iterations in each SHAKE solution
    # print SHAKE statistics every N many timesteps (0 = never)
    # b - bonds, a - angles
    # b 1 - bonds of type 1
    # a 1 - bonds of type 1
    # shake adds forces to make the displacement satisfy constraints - e.g. |r_ij|=d
    # rattle does the same and additionally it refines velocities - e.g. (|r|)'_t = 0.
    # *should be defined after other force- and v- modifiers since it doesn't account for them

thermo_style custom step density press temp
thermo ${NdumpStats}
thermo 10
run ${Nstab}
run 5000
PPPM initialization ...
  extracting TIP4P info from pair style
  using 12-bit tables for long-range coulomb (src/kspace.cpp:332)
  G vector (1/distance) = 0.258189
  grid = 24 24 24
  stencil order = 5
  estimated absolute RMS force accuracy = 0.0031521
  estimated relative force accuracy = 9.49246e-06
  using double precision FFTW3
  3d grid and FFT values/proc = 8835 2304
Neighbor list info ...
  update every 1 steps, delay 10 steps, check yes
  max neighbors/atom: 2000, page size: 100000
  master list distance cutoff = 14.3
  ghost atom cutoff = 14.3
  binsize = 7.15, bins = 5 5 5
  1 neighbor lists, perpetual/occasional/extra = 1 0 0
  (1) pair lj/cut/tip4p/long, perpetual
      attributes: half, newton on
      pair build: half/bin/newton
      stencil: half/bin/3d/newton
      bin: standard
Per MPI rank memory allocation (min/avg/max) = 10.45 | 10.72 | 10.87 Mbytes
Step Density Press Temp 
       0    1.0041715    22035.389    296.44808 
      10    1.0006475    17897.265    482.10987 
      20   0.99223677   -1828.7089    1199.7003 
      30   0.98439223   -4471.1408    1239.4674 
      40   0.97880694   -1985.0337    1030.8085 
      50   0.97472437   -851.52375     924.8479 
      60   0.97156739   -150.63147    843.30777 
      70   0.96897799   -176.98636    799.66724 
      80   0.96683291   -721.61462     798.6737 
      90   0.96515361   -843.26695    764.34061 
     100   0.96390292   -794.55513    725.76381 
     110    0.9629931   -380.32153     676.2663 
     120   0.96227219   -143.52605    638.06001 
     130   0.96164999   -465.72111    626.95284 
     140   0.96118642   -573.80546     594.2865 
     150    0.9609188   -919.11189    569.11922 
     160   0.96091451   -981.04667    541.34808 
     170   0.96119193   -1053.0838    528.31599 
     180   0.96174628   -1004.9737    511.59871 
     190   0.96256835   -1092.7596    487.81779 
     200   0.96367088   -1234.6694    467.08504 
     210   0.96508195    -1356.647    457.30456 
     220   0.96681728   -1238.1857    435.57843 
     230   0.96884984   -1467.0659    429.46685 
     240   0.97121126   -1673.0045    417.31322 
     250   0.97394073   -1809.4713    403.50927 
     260   0.97703496   -1655.2863    388.50394 
     270   0.98041366    -1522.423    385.04563 
     280   0.98398355     -1362.36    382.28697 
     290   0.98765148   -1338.3054    372.41453 
     300   0.99136907   -1464.1435    375.20617 
     310    0.9951023   -998.16928    355.35877 
     320   0.99872043   -927.32561    351.39633 
     330    1.0021678   -908.08693    340.40258 
     340    1.0054483    -891.3769    334.22033 
     350    1.0085664   -990.93922    328.04043 
     360    1.0115702   -1207.2694     330.0956 
     370    1.0145199   -1109.3144    317.46009 
     380    1.0174164   -1215.2794    313.41982 
     390    1.0202862   -1261.7749    311.77637 
     400    1.0231445   -1042.5854    303.50138 
     410    1.0259552   -1000.0131    306.89139 
     420    1.0287047   -952.30049    304.67293 
     430    1.0314006    -1012.703    304.48076 
     440    1.0340605   -871.80953    295.81424 
     450    1.0366716   -951.36487    296.11327 
     460    1.0392447   -771.31669    285.78734 
     470    1.0417578   -828.92087    289.41778 
     480    1.0442262   -795.19008    292.26717 
     490    1.0466468   -667.61789    288.51443 
     500    1.0490015   -708.85535    292.48396 
     510    1.0512991    -518.8619    285.35237 
     520    1.0535062   -495.18511     293.2854 
     530    1.0556149   -320.13323    294.84181 
     540    1.0576007   -181.59501    294.44122 
     550    1.0594354    20.989576    290.68874 
     560     1.061093   -126.66516    299.63053 
     570     1.062613    121.99994    296.94683 
     580    1.0639522    495.76732    291.51365 
     590    1.0650412     417.8392    288.99683 
     600    1.0659237   -132.13832    296.82025 
     610    1.0667593   -386.32473    296.52194 
     620    1.0676335   -421.16927    299.89761 
     630    1.0685453   -191.37583    296.07179 
     640    1.0694418    20.690678    292.53386 
     650    1.0702583    309.54259    289.33674 
     660    1.0709241    596.60166    292.73094 
     670    1.0713679    835.15051     292.4641 
     680     1.071555    518.17997    301.99186 
     690    1.0715795     256.7472    307.84507 
     700    1.0715134    491.97984    302.70066 
     710    1.0713209    474.69418    302.91679 
     720    1.0710063    383.09743    302.22893 
     730    1.0705999    386.27974    298.13383 
     740    1.0701122    298.31776    301.20553 
     750    1.0695631    321.86364    296.27001 
     760    1.0689662    71.850271     303.9668 
     770    1.0683785   -64.781856    303.07136 
     780    1.0678468   -135.47509    296.06853 
     790    1.0673883   -270.72161     294.7785 
     800    1.0670292   -287.97257    297.73971 
     810     1.066768    -60.99339    294.00785 
     820    1.0665364    174.22182    294.31992 
     830    1.0662655    425.24164    288.24845 
     840    1.0658956    343.02627    291.60462 
     850    1.0654456    221.19913    296.73217 
     860    1.0649555    134.50925    300.55699 
     870    1.0644452    169.45699    295.54879 
     880     1.063916    106.21673    296.96269 
     890    1.0633789      215.126    300.75395 
     900    1.0628082    219.57113    299.48184 
     910    1.0622147   -99.872239    299.66363 
     920    1.0616772   -338.16804    302.54321 
     930    1.0612462   -93.569155    296.79747 
     940    1.0608824   -287.26207    299.73345 
     950    1.0606147   -531.55661    294.08818 
     960    1.0605142   -693.27437    300.01671 
     970    1.0606132   -585.25886    302.31537 
     980    1.0608726   -401.25509    295.32838 
     990    1.0612383   -264.68497    298.18111 
    1000     1.061657     70.22596    293.50499 
    1010    1.0620546   -142.32886    297.23582 
    1020    1.0624736   -340.57594    303.36392 
    1030    1.0629587   -23.240467    297.55268 
    1040    1.0634313    290.07915    295.84294 
    1050    1.0638073    405.24681    293.83568 
    1060    1.0640502    424.84847    296.26303 
    1070    1.0641531    598.91725    298.76463 
    1080    1.0640866    588.72192    298.04953 
    1090     1.063856    360.72672    300.57482 
    1100    1.0635203    485.88375    293.89034 
    1110    1.0630663    377.09139    298.21065 
    1120    1.0625191    234.21669    296.57477 
    1130    1.0619206    229.26456    294.99259 
    1140    1.0612742    330.12829     293.0461 
    1150    1.0605674    153.77014    299.45263 
    1160    1.0598384    76.527746    296.78428 
    1170    1.0591245   -264.05752    306.48265 
    1180    1.0584917    105.73219    296.10693 
    1190    1.0578579    317.96498    298.32755 
    1200    1.0571646    155.70057    305.04952 
    1210     1.056447    76.520136    303.69844 
    1220    1.0557332    36.882888     309.5618 
    1230    1.0550283    168.18711    305.59497 
    1240    1.0543135   -88.917065    305.26784 
    1250    1.0536454   -192.18736    307.07942 
    1260    1.0530517   -59.964311    299.35919 
    1270    1.0525043    -249.3366    298.21897 
    1280    1.0520505   -472.04635    299.45185 
    1290    1.0517413   -391.00122    295.69493 
    1300    1.0515576   -368.89325    292.57768 
    1310    1.0514902   -445.50962    287.50152 
    1320    1.0515637   -789.68493    288.15582 
    1330    1.0518578   -951.32284    287.72865 
    1340    1.0524229   -1088.5862    291.88604 
    1350    1.0532758   -883.73198    290.82183 
    1360    1.0543489   -330.75047    280.18723 
    1370    1.0554957   -264.28943    289.70193 
    1380    1.0566804   -303.02745    296.06135 
    1390    1.0579009    49.075729    292.29869 
    1400    1.0590595    660.29547    293.62372 
    1410    1.0599807    1227.2129    290.49313 
    1420    1.0605367    970.43982    300.59221 
    1430    1.0607823    804.22556    302.11258 
    1440    1.0607932    609.55166    307.69662 
    1450    1.0606172    623.51934    308.55579 
    1460    1.0602673    614.83272    311.01559 
    1470     1.059753    525.25167     303.7707 
    1480    1.0591163    80.917799    305.98063 
    1490    1.0584669    13.935687    302.75267 
    1500    1.0578387   -27.531768    301.90147 
    1510    1.0572505   -379.66572    302.05403 
    1520    1.0567893   -637.89114    299.03407 
    1530    1.0565232   -607.56415    296.25497 
    1540    1.0564448   -601.58175    298.21434 
    1550    1.0565421   -528.86877    300.73493 
    1560    1.0567839   -254.70425    292.00819 
    1570    1.0571035   -293.86132    300.74006 
    1580    1.0574769    141.21688    295.10536 
    1590    1.0578016    444.65356    296.34254 
    1600    1.0579947     394.8841    294.75118 
    1610    1.0580744    120.64653    300.63697 
    1620    1.0581045    188.82077    301.12134 
    1630    1.0580845    168.02942    301.00606 
    1640    1.0580129    137.79009    295.20962 
    1650    1.0579085   -13.655189    298.14754 
    1660    1.0578039   -24.493554    298.18752 
    1670     1.057712  -0.77105317    295.94862 
    1680    1.0576198    113.42993    292.62554 
    1690    1.0575091   -77.809172    302.24143 
    1700    1.0574126   -8.2853412    296.59422 
    1710    1.0573259    20.868359     294.7514 
    1720    1.0572328     18.58809     292.8745 
    1730    1.0571445    -185.0281    294.79121 
    1740    1.0571081   -293.55867    289.67262 
    1750    1.0571581   -349.15672    292.52333 
    1760    1.0573048   -210.21724    292.66462 
    1770    1.0575095   -58.926825     288.2147 
    1780     1.057736   -162.40642    300.82057 
    1790    1.0579808    372.87968    293.82757 
    1800    1.0581266    522.75288    300.16075 
    1810    1.0581117    660.10015    296.37257 
    1820    1.0579115    580.58675    308.87055 
    1830    1.0575346     738.1543    305.54516 
    1840    1.0569579    683.21324    300.47398 
    1850    1.0562066    209.07643    300.84461 
    1860    1.0554144   -521.75673    309.84985 
    1870    1.0547901   -995.33436    310.24352 
    1880    1.0544611   -964.67684    308.18899 
    1890    1.0544053   -371.31601    293.84419 
    1900    1.0544795   -419.62546    298.18666 
    1910    1.0546713   -458.61373    294.61829 
    1920    1.0549919   -386.52612    289.19854 
    1930     1.055424   -506.52753    291.62857 
    1940     1.055998   -645.40195    300.55374 
    1950    1.0567384   -368.58769    295.29971 
    1960    1.0575829   -298.35843    298.82664 
    1970     1.058495   -154.73657    300.43301 
    1980    1.0594304    77.703922    302.87021 
    1990    1.0603193    431.19229    294.48162 
    2000    1.0610699    578.91559    295.60581 
    2010    1.0616333    747.60076     301.2467 
    2020    1.0619711    755.13841    296.48081 
    2030    1.0620939    316.60089    304.49586 
    2040    1.0621037    408.48697    299.78328 
    2050    1.0619946    515.55257    300.35735 
    2060    1.0617381    545.87602    298.32059 
    2070    1.0613293     458.2884    297.28166 
    2080    1.0607941    361.11748    300.20929 
    2090    1.0601525    640.93902    294.99429 
    2100    1.0593426    732.82964    295.17878 
    2110    1.0583322    720.62696    289.92564 
    2120    1.0571339    607.14883    287.00073 
    2130    1.0557984    88.508259    295.72976 
    2140    1.0544523    6.4578656    291.45659 
    2150    1.0531405   -153.86072    288.06637 
    2160    1.0519116   -493.56751     298.7854 
    2170    1.0508455   -370.90842    297.87888 
    2180    1.0499131   -191.11881    298.77198 
    2190    1.0490642    -128.1779    299.65506 
    2200    1.0482774   -203.85988     306.8634 
    2210    1.0475566    62.318304    292.99953 
    2220    1.0468653    -483.3622    312.83239 
    2230    1.0463116   -456.73314    303.96638 
    2240     1.045915   -488.76803    304.64595 
    2250    1.0456648   -405.18613    299.62789 
    2260    1.0455445   -419.07189    298.46755 
    2270    1.0455455   -369.77363     295.8191 
    2280    1.0456631   -584.34743    303.98872 
    2290    1.0459375   -439.95925    296.46799 
    2300    1.0463319   -190.01339    293.68503 
    2310    1.0467743    12.070679    295.24608 
    2320    1.0472027    168.37331     294.1699 
    2330    1.0475674    438.49713     293.4686 
    2340    1.0478082    311.51623     296.4251 
    2350    1.0479543    21.637729    293.93064 
    2360    1.0480933   -185.75796    302.71401 
    2370    1.0482618    270.53407    292.82446 
    2380    1.0483575    517.10336    294.58476 
    2390     1.048297    658.32245    293.36403 
    2400    1.0480501    583.78628    291.50613 
    2410    1.0476484    140.97618    303.98024 
    2420    1.0471995    146.03921    299.30739 
    2430    1.0467221    105.69007    299.55086 
    2440    1.0462157    145.50527    299.77548 
    2450    1.0456814    124.72873    300.21205 
    2460    1.0451235    46.149961    298.69123 
    2470    1.0445675   -165.44836    298.57525 
    2480    1.0440762   -521.49286    301.61532 
    2490    1.0437454   -774.05621    305.12614 
    2500     1.043634   -530.76107    302.08012 
    2510    1.0436731   -77.758842    293.06087 
    2520    1.0437465   -75.927233    291.48822 
    2530    1.0438536    -415.4413    301.61559 
    2540    1.0440639   -314.88765    295.24698 
    2550    1.0443703   -303.66381    302.30219 
    2560    1.0447479    25.300069     298.0855 
    2570    1.0451169    275.43289    297.79152 
    2580    1.0453915    705.63778    295.45625 
    2590    1.0454579    1067.2258    291.31166 
    2600    1.0452259    765.35354    300.54902 
    2610    1.0447743    257.36437    306.58336 
    2620    1.0442487   -23.384348    307.51167 
    2630    1.0437317   -32.159392    305.53132 
    2640    1.0432268    135.61961    304.66204 
    2650    1.0426885    338.61162    299.66914 
    2660    1.0420718   -3.2935509    304.55967 
    2670    1.0414644   -398.20146    307.17147 
    2680    1.0409774   -536.80866    303.44184 
    2690    1.0406445   -367.99456    297.18093 
    2700    1.0404258   -185.81901    295.29414 
    2710    1.0402667    -55.05312    281.93431 
    2720    1.0401445   -541.68577    290.10567 
    2730    1.0401704   -672.42639    284.38181 
    2740    1.0404033   -938.28308    291.04386 
    2750    1.0408983   -903.04034    288.55937 
    2760    1.0416553   -744.78144    287.70738 
    2770    1.0426192   -561.66512    292.99102 
    2780    1.0437325   -163.36651    294.50158 
    2790     1.044879    376.75511    289.10721 
    2800    1.0459015     748.2014    295.83084 
    2810    1.0466927    1034.1543    292.10931 
    2820    1.0471865    748.12186    305.97342 
    2830    1.0474424    768.42069    301.97209 
    2840    1.0474706    823.19329    304.08297 
    2850    1.0472513    952.52456    302.97819 
    2860    1.0467673    794.26762    302.15349 
    2870    1.0460544    609.72857    300.87511 
    2880    1.0451771    294.61137    307.56441 
    2890    1.0442204    141.86611    307.16717 
    2900    1.0432352    79.498873    306.11523 
    2910    1.0422346     309.9998    295.89837 
    2920    1.0411687    191.78578    303.00238 
    2930     1.040055    236.81224       300.62 
    2940    1.0388957    189.25998    295.62112 
    2950    1.0377099   -146.71075     294.0251 
    2960    1.0365972   -683.82163    297.10693 
    2970    1.0356912    -768.4937    299.55102 
    2980    1.0350201   -449.94212    288.24947 
    2990    1.0345153   -709.73284    293.62458 
    3000    1.0342197     -928.056     293.7134 
    3010    1.0342055   -1124.8167    300.30296 
    3020     1.034508   -924.92774    295.96345 
    3030    1.0350734   -593.84472    300.27457 
    3040    1.0358029    -236.0554    298.37413 
    3050    1.0365886    7.5516733    297.56203 
    3060    1.0373683    -27.95518    298.92907 
    3070    1.0381396   -86.984047    302.34995 
    3080    1.0389225   -89.868258    304.43507 
    3090     1.039708    178.77895    297.91011 
    3100    1.0404334    271.65973     296.1694 
    3110    1.0410638    311.49809    303.08809 
    3120    1.0415871    536.98114    297.74948 
    3130    1.0419531    500.39736    296.19724 
    3140    1.0421654    427.11063    298.12513 
    3150     1.042247    368.25727    297.68982 
    3160    1.0422214    206.41784    294.81563 
    3170    1.0421405   -38.967083    293.40497 
    3180    1.0420733   -297.85397    293.63378 
    3190    1.0420954   -469.73589    291.58402 
    3200    1.0422577    -754.9079    298.92966 
    3210    1.0426278   -647.37572    294.60302 
    3220    1.0431745   -203.90913     287.0347 
    3230    1.0437898   -248.53968    297.37247 
    3240    1.0444652   -302.62586    299.64324 
    3250    1.0452148   -136.38106    298.49377 
    3260    1.0459873    260.75849    297.01222 
    3270    1.0466849    295.74859    300.23247 
    3280     1.047288    119.91343    306.28119 
    3290    1.0478384    257.80814    309.28366 
    3300    1.0482951    681.50489    301.17555 
    3310    1.0485592    633.99161    300.57938 
    3320    1.0486344    551.50875    297.52147 
    3330    1.0485541    271.60211    301.94269 
    3340    1.0483934    7.1419104    303.23691 
    3350    1.0482317   -68.981026    294.59136 
    3360    1.0481035   -410.43325    298.70566 
    3370    1.0480899   -547.81132    299.60557 
    3380    1.0482277   -311.90583    289.63852 
    3390    1.0484567   -87.837722    288.26819 
    3400     1.048709    70.607615    291.93067 
    3410    1.0489364    315.70326    291.01707 
    3420    1.0490661    550.72441    297.75378 
    3430    1.0490312     757.6221    298.26629 
    3440     1.048779    777.48545    298.33216 
    3450    1.0482957    759.40317    297.68867 
    3460    1.0476032    602.95653    305.49889 
    3470    1.0467281    754.16118    300.61084 
    3480    1.0456532    596.35495    296.06406 
    3490    1.0444324    16.295907    304.33572 
    3500    1.0432062    -8.258606    303.11498 
    3510    1.0420009   -10.382131    297.23358 
    3520    1.0408357   -560.14549    299.41127 
    3530    1.0398394   -681.83058    292.88882 
    3540    1.0390625   -731.88567    297.94048 
    3550    1.0385073   -672.80226    294.36341 
    3560    1.0381684   -839.74709    293.76502 
    3570    1.0380732   -791.76571    293.78701 
    3580    1.0382155   -872.48597     299.4051 
    3590    1.0386081   -859.68989    303.33739 
    3600     1.039242   -576.20119    299.39253 
    3610    1.0400399   -507.03015    308.33777 
    3620    1.0409652   -175.34298    305.94269 
    3630    1.0419333    119.10282     298.8851 
    3640    1.0428536    318.51927    298.86174 
    3650    1.0436686     423.0254    297.21923 
    3660     1.044356    219.83603    298.13156 
    3670    1.0449675   -19.125068    297.92424 
    3680    1.0455815   -370.41624    305.80483 
    3690    1.0462733   -66.346258     295.1815 
    3700    1.0469891   -90.914956    300.60974 
    3710    1.0477112    11.258923     301.1491 
    3720    1.0484132     331.8372    296.21557 
    3730    1.0490101    501.50564    298.36827 
    3740    1.0494465    649.54176    298.88225 
    3750    1.0496831    826.86078    296.61449 
    3760    1.0496756    893.74345    292.06752 
    3770    1.0494215     385.3352    300.51381 
    3780    1.0490555   -86.530698    303.13635 
    3790    1.0487138   -201.59342    295.72656 
    3800    1.0484351   -216.97135    293.86447 
    3810    1.0482209   -148.22072    288.35519 
    3820    1.0480584   -209.10024    289.32874 
    3830    1.0479576   -241.01535    288.23682 
    3840    1.0479371   -417.30972    292.11876 
    3850    1.0480279    -226.9208    286.00327 
    3860    1.0481867   -54.602789    292.47062 
    3870     1.048356    81.664412    288.59078 
    3880    1.0485155   -159.88199    298.44807 
    3890    1.0487009    170.33308    298.50147 
    3900    1.0488329    617.79897    299.32287 
    3910    1.0487906    740.65129    294.13788 
    3920    1.0485382    514.08798     300.6346 
    3930    1.0481349     385.2937    302.54601 
    3940    1.0476159    414.89976    297.49169 
    3950    1.0469982    20.240648    304.22194 
    3960    1.0463759   -366.75647    311.93766 
    3970    1.0458608   -390.13036    310.55584 
    3980    1.0454533   -18.499898    305.13801 
    3990    1.0450552    304.79281    302.64157 
    4000    1.0445777    384.47801    308.44756 
    4010    1.0439784    725.52938    302.11432 
    4020    1.0431878    605.04275    304.88268 
    4030     1.042223    476.81662    301.64044 
    4040    1.0411326    254.75288    300.82585 
    4050    1.0399761    89.067773    297.87738 
    4060    1.0388118   -259.00452    297.27101 
    4070     1.037748   -865.24542    298.11218 
    4080    1.0369452   -1148.6261    293.15729 
    4090    1.0364842   -1132.9372    293.43137 
    4100    1.0363641   -1086.5791    291.19989 
    4110    1.0365636   -1084.6014    290.19164 
    4120    1.0370817   -1000.2786    291.88982 
    4130    1.0378675   -418.53747    283.23003 
    4140    1.0387876   -350.81924    293.63001 
    4150    1.0397903   -122.19453    287.42582 
    4160    1.0408303   -263.08254    295.86434 
    4170    1.0419333   -446.76051    307.90185 
    4180    1.0431315    18.804397    293.66192 
    4190    1.0443301   -29.173159    302.91144 
    4200    1.0455111    76.033275    305.08623 
    4210    1.0466478    332.02268    297.98308 
    4220    1.0476764     366.4292    304.06185 
    4230     1.048574    467.22621     303.3187 
    4240    1.0493261    358.23687    309.00528 
    4250    1.0499524    392.99174    308.26841 
    4260     1.050454    487.98145    308.57082 
    4270     1.050784    1029.5558    292.46748 
    4280    1.0508262    1016.7791    297.31858 
    4290    1.0505682    894.63627    288.97713 
    4300    1.0500627    495.41488     293.1736 
    4310     1.049415    236.01176    295.25491 
    4320    1.0487071    157.61816    291.37841 
    4330    1.0479742   -144.33037    293.62072 
    4340     1.047297   -443.07519    295.51183 
    4350    1.0467532   -380.04387    294.05847 
    4360    1.0463267   -158.97896    293.91879 
    4370    1.0459566   -41.085701    291.07852 
    4380    1.0456063   -5.8365687    289.87141 
    4390    1.0452718   -216.03538    303.40673 
    4400    1.0449892    9.3965314    300.01097 
    4410    1.0447178    45.110428    300.43719 
    4420    1.0444315    82.318893    301.94959 
    4430    1.0441247    121.23431    301.35396 
    4440    1.0437939    40.081797    304.35742 
    4450    1.0434562   -142.14809    306.21506 
    4460    1.0431621   -213.75775    303.27227 
    4470    1.0429332    -192.6399    301.21808 
    4480     1.042767   -261.98958    299.48792 
    4490    1.0426911   -612.76948    303.05274 
    4500    1.0427871   -630.82477    293.24906 
    4510    1.0430643   -474.90703     292.8387 
    4520    1.0434708   -199.73846    287.21218 
    4530    1.0439463   -353.25154    294.48693 
    4540    1.0445072   -169.34631     289.6938 
    4550    1.0451213   -211.75068    297.13843 
    4560    1.0457807   0.35020852     294.5292 
    4570    1.0464397     105.8456    297.58688 
    4580    1.0470521    235.08065    300.74692 
    4590    1.0475925    340.39842    301.94202 
    4600    1.0480122    807.57632    299.67353 
    4610    1.0481985    1048.4856     298.5002 
    4620    1.0480892    695.21057    298.26439 
    4630    1.0477835    81.291016    307.35849 
    4640    1.0474375    126.82898    305.30761 
    4650    1.0470563    436.82045    301.05625 
    4660    1.0465542    567.43337     297.2635 
    4670    1.0458961    408.72339    301.96809 
    4680    1.0451183    442.32652    296.88718 
    4690    1.0442269     283.7856    298.76228 
    4700    1.0432635      36.7181    300.81417 
    4710    1.0423052    -281.4436    299.14034 
    4720    1.0414319   -330.61621    295.79003 
    4730     1.040672   -364.53021    297.23533 
    4740    1.0400177   -260.30214     290.6333 
    4750    1.0394661   -642.95596    299.17202 
    4760    1.0390963   -689.09925    295.89589 
    4770    1.0389377   -700.75717    297.41093 
    4780    1.0389798   -505.14305    292.43056 
    4790    1.0391743   -414.94023    295.99696 
    4800    1.0394833   -227.37624    291.30189 
    4810    1.0398638   -338.78047    298.88477 
    4820    1.0403307    -92.51204    296.09282 
    4830    1.0408265    8.2448861    299.99437 
    4840    1.0413085    196.21237    295.96933 
    4850     1.041732    243.99732    300.09232 
    4860    1.0420836    151.02702    304.20803 
    4870    1.0423872    129.93128    304.70541 
    4880    1.0426447    236.25989    302.59096 
    4890    1.0428339    260.15923    303.77775 
    4900    1.0429431    254.79244    300.24876 
    4910     1.042984    55.033552    300.63275 
    4920    1.0429985     213.7157    289.10514 
    4930    1.0429615    39.506816    291.95594 
    4940    1.0429065    34.903687    291.76401 
    4950    1.0428443    26.800495    287.16588 
    4960    1.0427881   -472.05815    301.08067 
    4970    1.0428508   -334.42021    298.31529 
    4980      1.04301   -81.208886    301.53732 
    4990     1.043195    69.996772     302.1453 
    5000    1.0433479    544.46787    294.96174 
Loop time of 77.072 on 6 procs for 5000 steps with 3000 atoms

Performance: 5.605 ns/day, 4.282 hours/ns, 64.874 timesteps/s
99.8% CPU use with 6 MPI tasks x 1 OpenMP threads

MPI task timing breakdown:
Section |  min time  |  avg time  |  max time  |%varavg| %total
---------------------------------------------------------------
Pair    | 54.135     | 58.548     | 61.537     |  36.2 | 75.97
Bond    | 0.004442   | 0.0051837  | 0.0069478  |   1.2 |  0.01
Kspace  | 5.7933     | 8.7891     | 13.193     |  93.5 | 11.40
Neigh   | 1.9715     | 1.9727     | 1.9734     |   0.0 |  2.56
Comm    | 2.1012     | 2.1199     | 2.1311     |   0.8 |  2.75
Output  | 0.01307    | 0.014324   | 0.020175   |   2.2 |  0.02
Modify  | 5.3684     | 5.3841     | 5.411      |   0.7 |  6.99
Other   |            | 0.2384     |            |       |  0.31

Nlocal:    500 ave 515 max 488 min
Histogram: 2 0 1 0 0 1 0 1 0 1
Nghost:    10074 ave 10145 max 9989 min
Histogram: 1 0 1 0 0 1 1 1 0 1
Neighs:    320187 ave 331995 max 309164 min
Histogram: 1 1 0 1 1 0 0 0 0 2

Total # of neighbors = 1921123
Ave neighs/atom = 640.374
Ave special neighs/atom = 2
Neighbor list builds = 233
Dangerous builds = 8
unfix stab_iso
unfix stab_constrain

reset_timestep 0
fix iso all npt temp ${Text} ${Text} $(100.0*dt) iso ${Pext} ${Pext} $(1000.0*dt)
fix iso all npt temp 298 ${Text} $(100.0*dt) iso ${Pext} ${Pext} $(1000.0*dt)
fix iso all npt temp 298 298 $(100.0*dt) iso ${Pext} ${Pext} $(1000.0*dt)
fix iso all npt temp 298 298 100 iso ${Pext} ${Pext} $(1000.0*dt)
fix iso all npt temp 298 298 100 iso 1 ${Pext} $(1000.0*dt)
fix iso all npt temp 298 298 100 iso 1 1 $(1000.0*dt)
fix iso all npt temp 298 298 100 iso 1 1 1000
#fix iso all nvt temp ${Text} ${Text} $(100.0*dt)
fix constrain all rattle 1.0e-5 100 0 b 1 a 1
  0 = # of size 2 clusters
  0 = # of size 3 clusters
  0 = # of size 4 clusters
  1000 = # of frozen angles
  find clusters CPU = 0.000364065 secs

thermo_style custom step density etotal press temp
thermo_modify flush yes
    # insures the output is dumped in the file and not buffered or something
thermo ${NdumpStats}
thermo 10
dump trj all atom ${NdumpFrames} wat.lammpstrj
dump trj all atom 1000 wat.lammpstrj

run ${Nrun}
run 500000
PPPM initialization ...
  extracting TIP4P info from pair style
  using 12-bit tables for long-range coulomb (src/kspace.cpp:332)
  G vector (1/distance) = 0.258952
  grid = 24 24 24
  stencil order = 5
  estimated absolute RMS force accuracy = 0.00303485
  estimated relative force accuracy = 9.13935e-06
  using double precision FFTW3
  3d grid and FFT values/proc = 8835 2304
Per MPI rank memory allocation (min/avg/max) = 11.85 | 11.88 | 11.9 Mbytes
Step Density TotEng Press Temp 
       0    1.0433479   -11102.217    519.19573    294.96174 
      10    1.0433244   -11102.262    737.33604    293.53821 
      20    1.0432496   -11101.588    466.91196    295.67409 
      30    1.0431403   -11100.573    138.58167    297.73396 
      40    1.0430206   -11099.416   -101.35554    297.51408 
      50    1.0429082    -11098.12   -237.88609    296.21387 
      60     1.042812   -11096.475   -137.54521    293.11918 
      70    1.0427255   -11094.123    41.461884    289.04259 
      80     1.042638   -11091.047   -60.885911    296.34055 
      90    1.0425528   -11086.626     82.40279    285.67513 
     100    1.0424645    -11081.19   -3.4538815    293.23234 
     110    1.0423736   -11074.029    86.793003    296.76717 
     120    1.0422773   -11066.334    51.972294    302.49803 
     130     1.042174   -11058.291     315.7538    301.92187 
     140    1.0420464   -11050.373    644.48725    302.35024 
     150    1.0418745   -11042.789    579.52011    302.47492 
     160    1.0416615   -11035.568    281.97145    304.78342 
     170    1.0414257   -11028.933    194.24813    303.57041 
     180    1.0411749   -11023.017    197.10042    304.79934 
     190    1.0409094   -11018.035    214.64414    308.47225 
     200    1.0406273   -11014.211    305.24688    304.45298 
     210     1.040324   -11011.272    189.79082    303.12805 
     220    1.0400046   -11008.948    210.03061    304.07964 
     230    1.0396701   -11007.547      228.396    305.72606 
     240    1.0393177   -11006.865    287.65073     303.5801 
     250    1.0389444   -11006.936    236.81937    302.95107 
     260    1.0385542   -11007.416    69.383163    300.08467 
     270    1.0381587   -11008.563   -49.702185    303.87786 
     280    1.0377644   -11010.139    54.868972    298.22862 
     290    1.0373664   -11012.023    87.884538     295.8222 
     300     1.036963   -11014.328   -66.394814    304.34533 
     310    1.0365612   -11017.527    39.090658    301.07208 
     320    1.0361552   -11022.081    448.06374     290.2098 
     330     1.035719   -11027.122     431.3524    292.22814 
     340    1.0352517   -11032.976    39.546746    300.49722 
     350    1.0347811   -11040.709   -197.98949    299.05858 
     360    1.0343246   -11050.417   -417.76721    298.79679 
     370    1.0338986   -11062.067   -647.43484    298.81581 
     380    1.0335191   -11074.477   -726.24273    292.75119 
     390    1.0331933   -11086.674   -784.95069    292.51576 
     400    1.0329256   -11097.417   -846.75752    287.46209 
     410     1.032722    -11106.28   -1124.3452    291.41175 
     420     1.032599   -11113.515   -1129.9344    290.57855 
     430    1.0325572   -11118.886   -847.96222    286.04869 
     440    1.0325792   -11123.126   -745.07673    295.20837 
     450    1.0326548     -11126.1     -519.323    287.44802 
     460    1.0327699   -11127.842   -459.22177    289.13233 
     470    1.0329205   -11128.889   -572.21634    299.22381 
     480    1.0331113   -11129.519   -353.51005    292.15601 
     490    1.0333289   -11130.032   -153.21474    295.67297 
     500    1.0335536    -11129.65     467.4899    288.65611 
     510    1.0337479   -11128.596    654.06955    293.97257 
     520    1.0338949   -11127.129    646.86918    300.17273 
     530    1.0339923    -11125.37    926.74587    291.85078 
     540    1.0340249   -11123.703     747.2602     302.6595 
     550    1.0340014   -11121.801     629.8851    297.32182 
     560    1.0339326    -11120.12    448.23481    296.33057 
     570    1.0338318   -11118.182    154.97547     299.8198 
     580    1.0337198   -11116.098   -217.18844     300.2475 
     590    1.0336231   -11114.315   -465.41296    302.02058 
     600    1.0335571   -11112.642   -239.31956     295.3165 
     610    1.0335105   -11110.688    -217.0638    293.96176 
     620    1.0334806   -11108.428   -330.86139     301.0152 
     630    1.0334721    -11105.51   -175.14366    295.48053 
     640    1.0334811   -11102.841   -409.39001    306.02398 
     650    1.0335158    -11100.17   -159.10203    300.26749 
     660     1.033563   -11097.994    121.87328    297.50703 
     670    1.0336014   -11095.218    302.82366    293.31644 
     680    1.0336206   -11091.826    51.868994    295.84182 
     690    1.0336352   -11087.231   -107.87576    292.04911 
     700    1.0336597   -11081.759   -432.49294    303.11849 
     710    1.0337128   -11075.456   -300.34692    297.04177 
     720    1.0337894   -11068.721   -119.08439    293.73848 
     730    1.0338756   -11060.979   -142.46606    305.12788 
     740      1.03397   -11052.816    113.01918    301.15884 
     750    1.0340591    -11045.09    168.97471    306.51878 
     760    1.0341318   -11037.623    572.45603    303.11861 
     770    1.0341648   -11030.985    758.31286    300.62269 
     780     1.034142   -11024.562    859.77823     301.7422 
     790    1.0340556   -11018.647    934.77201    306.25439 
     800    1.0339004   -11013.696    863.91733    308.70643 
     810     1.033681   -11009.964    735.28838    306.38457 
     820    1.0334071   -11007.508    515.64443    308.80245 
     830    1.0330931   -11006.211    322.96424    310.42477 
     840    1.0327533   -11006.368    262.14889    308.86946 
     850    1.0323919   -11007.646    354.99089    302.29098 
     860    1.0320054   -11010.008    58.417441    310.86738 
     870     1.031611   -11013.856   -82.637224    306.85842 
     880    1.0312205   -11018.759   -191.26412    302.57894 
     890    1.0308424   -11024.658   -388.56337    304.30084 
     900    1.0304913   -11031.649   -427.93461     301.2593 
     910    1.0301708   -11039.264   -535.51988    298.86219 
     920    1.0298891   -11047.477   -767.97232    302.36198 
     930      1.02966   -11056.515    -747.7151    303.70754 
     940     1.029484   -11065.892   -632.57931    299.07858 
     950    1.0293548   -11075.342   -554.34058    298.39132 
     960    1.0292644   -11083.709     -287.454    294.88481 
     970    1.0291963   -11091.761    -278.4312    307.25557 
     980    1.0291445   -11098.665    117.33196    292.82492 
     990    1.0290866    -11104.08    150.23558    292.88972 
    1000    1.0290189   -11108.026   -149.83541    301.39323 
    1010    1.0289605   -11111.395    -273.8214    300.62686 
    1020    1.0289218   -11114.234    -310.8287    297.65301 
    1030    1.0289058   -11116.294   -387.17946     296.8238 
    1040    1.0289213   -11118.373   -707.57625    303.52567 
    1050    1.0289859   -11119.895     -610.705    293.54301 
    1060    1.0290981   -11121.453   -565.87312    299.34514 
    1070    1.0292495   -11122.625    -200.2257    298.57871 
    1080    1.0294165   -11123.756    242.19764    294.55479 
    1090    1.0295693   -11124.689     432.8153     298.6467 
    1100    1.0296903   -11125.275    576.31009    296.78845 
    1110    1.0297728   -11126.122    421.29413    297.68694 
    1120    1.0298235   -11126.795    292.70959    303.10273 
    1130    1.0298497   -11127.769     497.2084     300.1101 
    1140    1.0298446   -11129.444    295.27344    302.06847 
    1150     1.029815   -11131.133     310.2849    295.42716 
    1160    1.0297646   -11132.872    109.95911    297.04687 
    1170    1.0297065    -11134.47    -309.1217    302.26407 
    1180    1.0296695   -11136.424   -484.89607     299.0177 
    1190    1.0296692   -11138.899   -701.71103    303.50004 
    1200    1.0297159   -11141.514   -331.67739    293.03355 
    1210    1.0297899   -11144.146   -163.23833    292.43302 
    1220    1.0298783   -11145.981    -280.2552    290.31291 
    1230    1.0299896   -11147.247   -501.53078    295.26251 
    1240    1.0301369   -11148.174   -421.46767    298.63707 
    1250    1.0303165    -11149.11   -253.14554    295.91082 
    1260    1.0305186   -11149.942   -204.20665    292.47731 
    1270    1.0307381   -11150.253   -79.923809     294.3567 
    1280     1.030966   -11149.968    33.629008    291.50275 
    1290    1.0311976   -11149.006   -194.76637    291.86444 
    1300    1.0314457     -11147.2   -379.12187    297.43818 
    1310    1.0317232   -11144.964   -283.73876    297.40567 
    1320    1.0320258   -11142.284    -186.8713    297.84536 
    1330    1.0323473   -11139.175   -124.73521    294.79551 
    1340    1.0326853   -11135.363   -384.76395    298.76471 
    1350    1.0330547   -11131.013   -480.76639    303.66545 
    1360    1.0334633   -11126.529    -200.4089    298.43713 
    1370    1.0338943   -11121.784   -47.440132       300.14 
    1380    1.0343353   -11116.601    143.08921    297.01998 
    1390    1.0347746   -11110.789    20.923172    300.48166 
    1400    1.0352195   -11104.866    -172.7247    308.82378 
    1410    1.0356796    -11099.17    71.899216    305.22465 
    1420    1.0361436   -11094.425     261.3142    305.38046 
    1430     1.036595    -11089.94    382.08207    306.04343 
    1440    1.0370273   -11086.662    260.19161    316.30209 
    1450     1.037443   -11084.686    647.25992    304.23152 
    1460    1.0378199   -11083.928    813.27349    303.31251 
    1470    1.0381425   -11083.632    790.12687    302.11249 
    1480     1.038413   -11083.916    620.69638    300.92654 
    1490    1.0386407   -11084.573    665.23201    300.21131 
    1500    1.0388218   -11085.635    859.77446    300.57381 
    1510    1.0389412   -11086.926    1094.6664    293.33424 
    1520     1.038987   -11088.329    724.66326    298.01716 
    1530    1.0389767   -11089.403    531.03276    299.16157 
    1540    1.0389261   -11091.038    616.37008    299.93493 
    1550    1.0388283   -11093.032    707.84095    298.15066 
    1560     1.038678   -11095.312    655.39062    293.88971 
    1570    1.0384756   -11097.551    709.23092     294.5375 
    1580    1.0382168   -11099.545    701.00462    297.10093 
    1590    1.0379029   -11101.911    423.70342    301.98364 
    1600    1.0375507   -11104.607    227.42353    297.03721 
    1610     1.037176   -11107.822   -102.22352    300.61551 
    1620    1.0368013   -11111.619   -369.40059    300.92215 
    1630    1.0364461   -11115.573   -580.35531    294.08594 
    1640    1.0361301   -11120.419   -987.02817    305.79819 
    1650    1.0358755   -11125.878   -664.44504    295.24243 
    1660    1.0356679   -11131.794   -439.48395    293.18375 
    1670    1.0354882   -11137.564   -267.11573     294.6584 
    1680    1.0353231   -11143.272    5.1337635    290.62471 
    1690    1.0351571   -11148.191   -200.13727    291.45182 
    1700    1.0350033   -11152.937   -555.28685    300.97639 
    1710    1.0348852    -11157.76   -454.09829    296.24833 
    1720    1.0347988    -11162.74   -436.45728    297.43427 
    1730    1.0347426   -11167.784   -461.80481    296.97965 
    1740    1.0347195   -11172.696   -500.29685    294.69083 
    1750    1.0347329    -11177.53   -440.27498    296.27999 
    1760    1.0347773   -11182.014   -117.45141    292.75646 
    1770     1.034835   -11186.544   -215.45659    302.03494 
    1780    1.0349075   -11190.952   -116.28744    295.82133 
    1790    1.0349916   -11195.699    -44.38739    296.32347 
    1800    1.0350793   -11200.082     137.8941    295.36481 
    1810    1.0351608   -11204.275     116.3023    292.12025 
    1820    1.0352369   -11208.009    -25.27238    294.79487 
    1830     1.035314   -11211.401    78.728892    295.35828 
    1840    1.0353894   -11214.881    8.9494192    297.67772 
    1850    1.0354628   -11217.803    189.64489    289.57337 
    1860    1.0355269   -11220.697    157.88512    298.51597 
    1870    1.0355773   -11223.194    338.96685    294.90776 
    1880    1.0356054   -11226.013    391.24511    294.48967 
    1890    1.0356031   -11228.179    591.39525    290.61922 
    1900    1.0355596   -11230.439     487.5591     296.1116 
    1910    1.0354764   -11231.821    532.56914    289.07785 
    1920     1.035356   -11233.398    41.447252    304.37644 
    1930    1.0352248   -11234.634    18.460075    290.85684 
    1940    1.0350929   -11236.425   -352.69702    298.24321 
    1950    1.0349806   -11237.716   -347.25566    290.31906 
    1960    1.0348925   -11238.595   -367.17438    287.90788 
    1970    1.0348308   -11238.776   -502.12209    294.84591 
    1980    1.0348035   -11237.919   -467.25264    288.03459 
    1990    1.0348129   -11236.191   -642.01756    290.74622 
    2000    1.0348693   -11233.081   -685.30045     294.5493 
    2010    1.0349756   -11228.812   -388.60177    294.71475 
    2020     1.035114   -11223.671   -23.179202    292.89197 
    2030    1.0352585   -11217.366    123.91904    294.87269 
    2040    1.0353972   -11210.174    226.82761    296.12894 
    2050    1.0355212   -11202.061    451.00966    291.94371 
    2060    1.0356176   -11193.604    256.17388    305.92294 
    2070    1.0356933   -11185.176    456.85095    301.24975 
    2080    1.0357389   -11177.854    571.78568    303.67041 
    2090    1.0357421   -11171.309    686.64814     305.9658 
    2100    1.0356936   -11165.804    777.90175    302.64089 
    2110     1.035586   -11161.203    832.34935     301.7816 
    2120    1.0354167   -11157.523    589.98618    309.39308 
    2130    1.0351972   -11154.655    544.65905    303.14697 
    2140    1.0349335   -11153.028    477.19493    305.02766 
    2150    1.0346268   -11151.882    547.72998    301.51399 
    2160    1.0342742   -11151.476    530.98449    300.78141 
    2170    1.0338758   -11151.168    293.91956    300.45004 
    2180    1.0334466   -11151.262    219.79434    299.58413 
    2190    1.0329898   -11151.441     452.7954     296.4636 
    2200    1.0324924   -11151.561    352.56073     296.3087 
    2210    1.0319615   -11151.412   -92.326324    297.03869 
    2220    1.0314271   -11151.049   -453.58645    302.11132 
    2230    1.0309139   -11151.001   -329.52035    297.90393 
    2240    1.0304159    -11150.87    -111.9686    290.96743 
    2250    1.0299216   -11150.397   -436.07857       299.75 
    2260    1.0294492   -11149.448   -576.72182    296.14531 
    2270    1.0290124   -11148.442   -652.70552    299.28878 
    2280    1.0286161   -11147.667   -562.92078    304.44406 
    2290    1.0282537   -11147.145    -357.6158    299.44306 
    2300    1.0279149    -11147.24   -414.77862    300.90158 
    2310     1.027601   -11147.495   -334.12276    299.88287 
    2320    1.0273058   -11148.146   -113.27554    299.15869 
    2330    1.0270168   -11149.155   -146.71653    300.42767 
    2340    1.0267354   -11150.611   -359.60995    298.08343 
    2350    1.0264765   -11151.976   -461.14714    291.51251 
    2360    1.0262493   -11153.173   -660.02089    295.17717 
    2370    1.0260662     -11153.8   -595.62607    290.02314 
    2380    1.0259279   -11153.811   -905.50168    292.31103 
    2390    1.0258569   -11153.209   -1419.9448     297.7262 
    2400    1.0258846    -11151.98   -1222.6039    289.69432 
    2410     1.026005   -11150.266   -1018.7781    294.23189 
    2420     1.026202   -11147.561   -937.93753    296.87267 
    2430    1.0264726   -11144.675   -944.83126    298.61038 
    2440    1.0268132   -11141.143    -622.8351    294.80818 
    2450    1.0272055     -11137.3   -402.84422    300.64625 
    2460    1.0276319   -11133.267   -264.09791    308.04785 
    2470    1.0280802   -11129.783    257.62392    298.87887 
    2480    1.0285158   -11126.622    731.23905    296.96494 
    2490    1.0289021    -11122.95    1072.5085    294.85714 
    2500    1.0292143   -11118.682    1251.4235    294.63519 
    2510    1.0294395   -11113.892    1093.0937    302.21706 
    2520    1.0295862   -11109.143     875.8609    303.39709 
    2530    1.0296697    -11105.01    679.10193    306.52607 
    2540    1.0297011   -11101.411    857.01643    300.64843 
    2550    1.0296724   -11098.297    692.59222     302.9583 
    2560    1.0295915    -11095.65    531.22542     306.8057 
    2570    1.0294693    -11093.57     536.1735    300.94236 
    2580    1.0293085   -11092.288    336.00865    306.28578 
    2590    1.0291193   -11091.504    349.89893    304.57651 
    2600    1.0289024   -11091.769    316.62802    307.90351 
    2610      1.02866    -11093.05    374.51659    303.51324 
    2620    1.0283886   -11095.513    268.07515    309.90848 
    2630    1.0280939   -11099.496     257.4546    307.36478 
    2640    1.0277793   -11104.614    9.2349748     302.0788 
    2650    1.0274628   -11111.622   -333.99034    310.92036 
    2660    1.0271634   -11119.263   -116.49666    294.34284 
    2670    1.0268748   -11128.034   -334.88179    301.20404 
    2680    1.0266072   -11136.526   -403.38303    294.97569 
    2690    1.0263669   -11145.094   -402.32901    295.33548 
    2700     1.026154   -11152.741   -355.73881    293.43281 
    2710    1.0259661   -11159.866   -397.50075     295.9282 
    2720    1.0258063   -11166.025   -449.01412    295.30142 
    2730    1.0256775   -11171.637    -438.8096    296.49358 
    2740    1.0255807   -11176.738   -387.13661    298.52065 
    2750    1.0255094   -11181.188   -130.85977    295.19552 
    2760    1.0254488   -11185.148   -16.450173    294.71344 
    2770    1.0253907   -11188.389   -170.74195    295.66855 
    2780    1.0253448   -11191.012   -314.86013    297.18386 
    2790    1.0253221   -11193.555   -521.47483    305.04737 
    2800    1.0253358   -11196.353   -481.65888    301.75591 
    2810    1.0253875    -11199.76   -647.79991     305.3865 
    2820    1.0254841   -11203.314   -484.87825    300.07847 
    2830    1.0256185   -11207.056   -367.05527    300.30512 
    2840    1.0257807   -11210.655    -242.1459    299.57283 
    2850    1.0259643   -11214.186   -368.19487    299.46967 
    2860    1.0261761   -11217.766   -461.40925    302.25114 
    2870    1.0264187   -11220.914    72.830067    290.71854 
    2880    1.0266618   -11223.473    237.47258    294.26916 
    2890    1.0268899    -11225.23    114.77318    298.13093 
    2900    1.0271106    -11226.87    74.832642    293.23266 
    2910    1.0273271   -11227.472    131.80895    286.65349 
    2920    1.0275385   -11227.723   -146.79763    303.11374 
    2930    1.0277557   -11227.214    316.25084    284.37426 
    2940    1.0279587   -11226.327    17.504027    294.05631 
    2950    1.0281572   -11224.481    103.81881     296.6244 
    2960    1.0283489   -11222.763    480.17454    291.66335 
    2970    1.0285081   -11220.503     513.9694    295.09224 
    2980    1.0286304   -11217.935    486.52743    295.63808 
    2990    1.0287188   -11215.492    429.10678    297.67798 
    3000    1.0287748   -11212.847    418.12683    295.68623 
    3010    1.0288009   -11210.708    412.79998    301.26923 
    3020    1.0287931   -11208.284    773.10977    289.75509 
    3030    1.0287329   -11206.081    622.91316    298.98459 
    3040    1.0286231   -11203.333    674.73987    293.10167 
    3050    1.0284648   -11200.865    630.85014    295.33663 
    3060    1.0282587   -11197.913    495.35263    297.03963 
    3070    1.0280138   -11195.423     461.9795    299.27588 
    3080    1.0277335   -11193.053    456.25643    293.73052 
    3090    1.0274185   -11190.652    211.29303    299.06511 
    3100    1.0270844   -11188.331    239.22923    293.72727 
    3110    1.0267341    -11186.28   -136.39933    302.47412 
    3120    1.0263873   -11184.198   -44.113537    294.07986 
    3130    1.0260439   -11182.571   -90.225284    297.19084 
    3140    1.0257029   -11180.827    6.9767791    298.33484 
    3150    1.0253578   -11179.305    305.26648    292.54486 
    3160    1.0249917   -11177.638    130.76789    296.05143 
    3170    1.0246141   -11175.836   -241.81971     297.8595 
    3180    1.0242511   -11174.419   -441.73136    303.68898 
    3190    1.0239144   -11173.319   -147.73101    296.42992 
    3200    1.0235906   -11172.573   -130.85472    291.04575 
    3210    1.0232756   -11171.269   -390.80152    297.76753 
    3220    1.0229845   -11169.678   -330.84066    295.88661 
    3230    1.0227198   -11168.592   -584.26888    300.31837 
    3240    1.0224936   -11167.006   -566.39043    291.28048 
    3250      1.02231   -11165.811   -670.22598    299.91689 
    3260    1.0221715   -11164.145   -456.26421    296.38867 
    3270    1.0220675   -11162.909   -481.84331     302.4763 
    3280    1.0219988   -11161.996   -467.37278    298.57083 
    3290    1.0219637   -11161.351    -439.0339    301.99556 
    3300    1.0219602   -11161.263   -320.46043    302.99867 
    3310    1.0219809   -11161.432   -234.41721    296.60319 
    3320    1.0220194   -11161.812   -180.20908    299.12063 
    3330    1.0220717   -11162.241   -183.26732    300.35837 
    3340    1.0221372    -11162.86   -88.569972    298.88443 
    3350    1.0222096   -11163.695    102.66776    299.41732 
    3360    1.0222759   -11164.744    119.50947    301.28505 
    3370    1.0223332   -11166.056     44.39319    298.82445 
    3380    1.0223866   -11167.424    134.33708    294.30847 
    3390    1.0224313   -11168.538    185.56278     298.0164 
    3400    1.0224629    -11169.74    208.77947    300.57967 
    3410    1.0224794   -11171.242    200.12239    298.78241 
    3420    1.0224814   -11172.918    181.90073    297.85625 
    3430    1.0224681   -11174.795     411.4263    294.92821 
    3440    1.0224245   -11176.508    580.93423    296.85751 
    3450    1.0223392   -11178.345    484.34328    299.34481 
    3460     1.022219   -11180.966    222.94226    307.53207 
    3470    1.0220758   -11184.691    504.69467    301.20039 
    3480    1.0218959   -11190.302    759.25435    302.13175 
    3490    1.0216564    -11196.95    1087.1952    294.11462 
    3500    1.0213401   -11205.254    859.40733    300.38811 
    3510    1.0209549   -11214.909    826.69102    299.37947 
    3520    1.0205071   -11226.019    737.18806    296.73807 
    3530    1.0200022   -11237.971    618.48615    296.37829 
    3540    1.0194477    -11249.84    559.23182    293.37882 
    3550    1.0188495   -11260.562    294.42882    291.17298 
    3560     1.018225   -11269.907    224.99991     290.2955 
    3570     1.017579   -11277.124    286.56656    287.04622 
    3580    1.0169109   -11282.676     37.22455    291.29936 
    3590    1.0162358   -11286.523   -63.603005     288.1745 
    3600    1.0155604   -11288.852    49.110236    284.74908 
    3610    1.0148821   -11289.849   -167.44078    287.63285 
    3620    1.0142137   -11289.101    -510.0213    287.81238 
    3630    1.0135813   -11287.429   -849.63074    291.44516 
    3640    1.0130058   -11284.842   -683.09966    287.10385 
    3650    1.0124782   -11281.303   -365.67821    281.82245 
    3660    1.0119795   -11276.577   -451.26613    284.90934 
    3670    1.0115128   -11270.261    -621.0026    282.23618 
    3680    1.0110919    -11262.92   -916.27801    293.11906 
    3690    1.0107346    -11255.13   -796.47764    291.62681 
    3700    1.0104346   -11247.545   -581.76876    288.87341 
    3710    1.0101775   -11239.816    -536.1853     288.2367 
    3720    1.0099609   -11232.315   -701.07116     294.9674 
    3730    1.0097949   -11225.067   -773.11165    291.70795 
    3740    1.0096863   -11218.577   -875.92922    295.30282 
    3750    1.0096401    -11212.53    -766.1927    292.80164 
    3760    1.0096508    -11206.97   -648.41353    287.13723 
    3770    1.0097103   -11201.251   -656.74903    291.64996 
    3780    1.0098177   -11195.546   -655.11522    297.52282 
    3790    1.0099738   -11190.278    -601.0105    294.92003 
    3800    1.0101765   -11185.701   -741.06683    301.74051 
    3810     1.010431    -11181.65   -463.46637    298.94659 
    3820    1.0107213   -11178.139   -166.11017     295.5507 
    3830    1.0110269   -11174.909   -120.03782    297.03842 
    3840    1.0113418   -11171.395   -113.91489    293.71638 
    3850    1.0116684   -11168.179   -276.71578    301.42488 
    3860    1.0120122    -11164.77     122.9204    291.63956 
    3870    1.0123508   -11161.179    222.77993    294.28617 
    3880    1.0126766   -11157.385   -19.292625    301.20374 
    3890    1.0130023   -11153.582    53.162146    295.63367 
    3900    1.0133261   -11149.963     192.9665    295.05462 
    3910    1.0136379   -11145.842    185.34528    297.11454 
    3920    1.0139377   -11141.873    45.018861    302.50431 
    3930    1.0142339   -11138.273     78.83065    299.45933 
    3940    1.0145262   -11135.033   -8.9206771    302.73635 
    3950    1.0148201   -11132.325   -50.579928    306.67671 
    3960    1.0151183   -11130.452   -65.849646    306.67477 
    3970    1.0154246   -11129.707   -255.71834    306.19044 
    3980      1.01575   -11130.063   -339.33702    308.84737 
    3990    1.0160993   -11131.541    -144.6036    304.99524 
    4000    1.0164613   -11134.194    100.34522     300.3695 
    4010    1.0168188   -11136.622    170.79969    291.32994 
    4020    1.0171707   -11139.637   -437.60053    307.70777 
    4030    1.0175496   -11142.908   -336.33322     298.4648 
    4040    1.0179529   -11146.817    213.41566    292.16546 
    4050     1.018343   -11150.467    629.72776    294.64065 
    4060    1.0186878   -11153.909    915.02427    292.18859 
    4070    1.0189699   -11157.022    795.99451     292.3533 
    4080     1.019196   -11160.181    377.21793    300.47702 
    4090    1.0193933   -11163.666    175.07898    296.08557 
    4100    1.0195803   -11167.743   -162.49127    300.14025 
    4110    1.0197772   -11172.402   -168.43883    298.66589 
    4120    1.0199879   -11177.844   -100.25816     292.5623 
    4130    1.0202076   -11183.455   -90.593794    290.95999 
    4140     1.020434   -11189.348    16.123789    294.12821 
    4150      1.02066   -11195.127    105.84615    289.65236 
    4160    1.0208802   -11200.837   -28.388406    292.44737 
    4170    1.0211034   -11206.794   -121.35353    297.17742 
    4180    1.0213341   -11212.803    69.585945    291.45357 
    4190    1.0215636   -11219.111    66.360189    292.18559 
    4200    1.0217873   -11224.852    265.86403     286.4627 
    4210    1.0219949   -11229.964    95.124886    292.21979 
    4220    1.0221954   -11234.594   -28.177616     293.0759 
    4230    1.0223989   -11239.156   -2.4756309    293.68448 
    4240    1.0226025   -11243.356    14.679055    296.76284 
    4250    1.0228053   -11247.864    136.57313    296.09301 
    4260    1.0230006   -11252.354    166.52226    293.28361 
    4270    1.0231859   -11256.881   -63.163422    298.26078 
    4280    1.0233754    -11261.57   -35.526359    295.44837 
    4290    1.0235674   -11266.337    159.66175    295.22385 
    4300    1.0237484   -11271.154    371.74957    293.13901 
    4310    1.0239036    -11275.59    485.84213    286.86387 
    4320    1.0240248   -11279.175    346.44485    290.50453 
    4330    1.0241195   -11281.953    373.76812    290.25963 
    4340    1.0241894   -11284.605    261.13988    296.97941 
    4350    1.0242379   -11286.841    362.01514    294.17414 
    4360    1.0242621   -11289.399    244.18767    300.20819 
    4370    1.0242662    -11292.24    371.18186    295.40351 
    4380    1.0242422   -11295.248     612.6122     291.6272 
    4390     1.024173   -11297.878    787.95776    288.60173 
    4400     1.024049   -11299.913     538.7562    290.92233 
    4410    1.0238846   -11301.264    221.09686    290.41112 
    4420    1.0237028   -11301.871   -79.628936     291.8964 
    4430    1.0235238   -11301.525   -214.08521     290.9739 
    4440    1.0233611   -11300.592   -357.62641    293.54808 
    4450     1.023223   -11298.605   -441.24387    291.97909 
    4460     1.023117   -11295.868    -518.7165    293.98369 
    4470    1.0230457   -11291.712   -266.63712    287.98197 
    4480    1.0229962   -11286.419   -187.33987    289.39199 
    4490    1.0229588   -11279.019   -89.808914    285.21958 
    4500    1.0229308   -11269.735   -379.68139    292.96478 
    4510    1.0229281   -11259.171   -320.83252    292.49163 
    4520    1.0229498   -11248.056   -238.06587    286.88198 
    4530    1.0229924     -11236.6    -583.5809    297.40492 
    4540    1.0230751   -11225.601     -516.031    298.58177 
    4550     1.023196   -11216.083   -262.36831     295.2984 
    4560    1.0233388    -11207.76   -280.16364    302.94466 
    4570    1.0235016   -11201.085   -85.290023    305.68467 
    4580    1.0236701   -11195.818     279.0663    299.40503 
    4590    1.0238219   -11191.756    341.98316    302.50858 
    4600    1.0239504   -11188.424    344.51092    299.31351 
    4610    1.0240553   -11185.699    142.90186    302.60296 
    4620    1.0241496   -11183.483    107.01591    297.99487 
    4630    1.0242383   -11181.469   -39.217722    296.42072 
    4640    1.0243319   -11179.416    -305.6505    300.96859 
    4650     1.024446   -11177.626   -268.15668     302.1786 
    4660    1.0245802   -11176.442   -9.6188543    300.00464 
    4670    1.0247151   -11175.312    329.67827    293.84281 
    4680    1.0248295   -11174.024    303.49426    297.57208 
    4690    1.0249219   -11172.448     201.4575    300.79601 
    4700    1.0249996   -11171.334    287.57133    300.54596 
    4710     1.025057   -11170.327    369.44509    298.04237 
    4720    1.0250891   -11169.333    239.05113    297.96396 
    4730    1.0251061   -11168.265   -205.50085    300.48821 
    4740    1.0251373   -11167.703   -501.37694    308.91967 
    4750    1.0252001   -11167.519   -33.003324    291.58522 
    4760    1.0252721   -11167.661   -95.926369    298.50094 
    4770    1.0253497   -11167.377   -78.735926    299.55786 
    4780    1.0254325   -11167.038    181.01841    292.59727 
    4790    1.0255048   -11166.615    277.69403    298.21097 
    4800    1.0255571   -11165.815    190.86936    303.06931 
    4810    1.0255947    -11165.61    308.62804    301.82483 
    4820    1.0256103   -11166.027    379.08327    306.21154 
    4830     1.025596     -11167.2     518.8052    299.98192 
    4840    1.0255459   -11169.087    365.78089    302.45071 
    4850    1.0254674   -11171.897    229.37543    309.23731 
    4860    1.0253681   -11175.964    611.28292    296.21717 
    4870    1.0252274   -11181.093    297.38516    304.05655 
    4880    1.0250583   -11187.014    383.66225    297.37561 
    4890    1.0248611   -11193.582    370.88174    296.49284 
    4900    1.0246358   -11201.063    11.657846    306.04009 
    4910    1.0244041   -11209.366    42.356789    295.94926 
    4920    1.0241687   -11218.233   -127.25978    299.23603 
    4930    1.0239371   -11227.218   -41.454124    299.49989 
    4940    1.0237045   -11236.168    196.19009    294.65394 
    4950    1.0234563   -11244.466    209.73514    294.12003 
    4960    1.0231892   -11251.798    132.15455    295.52881 
    4970      1.02291   -11258.396   -76.382436    296.84853 
    4980    1.0226344   -11264.339   -466.69417    301.19848 
    4990    1.0223874   -11269.937    -576.2781    298.69317 
    5000    1.0221789   -11275.053   -441.90925     295.2272 
    5010    1.0220013   -11279.361    -434.0676    295.28471 
    5020     1.021854   -11283.135   -497.82643    294.56936 
    5030    1.0217409   -11285.731   -464.64843    287.46627 
    5040    1.0216625   -11287.419   -544.48525     290.6533 
    5050    1.0216232   -11287.709   -655.15302    290.31882 
    5060    1.0216328   -11287.611   -865.00161    299.19501 
    5070    1.0217031   -11287.079   -618.82619    294.07646 
    5080    1.0218209   -11286.483   -295.95872     292.6323 
    5090    1.0219627   -11285.223    4.1001847    290.57857 
    5100    1.0221073   -11283.427    89.157403    292.84607 
    5110    1.0222452   -11280.651      400.414     284.1412 
    5120    1.0223586   -11276.832    321.03332    288.11101 
    5130    1.0224502   -11271.808    155.41162    291.38543 
    5140    1.0225313   -11266.005    26.231096    291.62346 
    5150    1.0226111   -11259.766    69.379702    291.38347 
    5160    1.0226864   -11253.115    231.82149    291.20326 
    5170    1.0227456   -11246.011     338.0655    288.36263 
    5180    1.0227825   -11238.843    205.50845    294.32187 
    5190    1.0228039   -11231.623    197.97688    293.21358 
    5200    1.0228116   -11225.207    141.95543    299.64295 
    5210    1.0228055   -11219.467    435.34229    292.65181 
    5220    1.0227692   -11214.471    460.63169    293.26583 
    5230    1.0226982   -11209.905    355.06875    298.41212 
    5240    1.0225992   -11205.935    268.59375    296.79613 
    5250    1.0224804   -11202.829    26.875354    300.06158 
    5260    1.0223572   -11200.065   -171.62709    297.17365 
    5270    1.0222445   -11198.008   -256.22536    300.15025 
    5280    1.0221463   -11195.829    54.345742    288.11773 
    5290    1.0220463    -11193.62     -100.105    295.19234 
    5300    1.0219499   -11190.752   -59.176336    290.53898 
    5310     1.021858   -11187.509   -235.21368    292.25556 
    5320    1.0217823   -11183.835   -422.23239    294.90624 
    5330    1.0217354   -11179.871   -444.23252    295.32472 
    5340    1.0217207   -11176.041   -511.18464    301.38868 
    5350    1.0217424   -11172.544   -417.07447    300.24708 
    5360    1.0217954   -11169.437   -281.18198    297.95324 
    5370    1.0218709   -11166.546   -205.82241    299.33369 
    5380    1.0219645   -11164.004    -389.2039    306.14164 
    5390    1.0220866   -11162.143   -329.06324    303.31158 
    5400    1.0222354   -11161.145   -184.01918    303.91379 
    5410    1.0224004   -11160.939    1.6898771    303.19312 
    5420    1.0225672    -11160.91     206.7651    299.02828 
    5430    1.0227234   -11161.904    242.61617    306.08405 
    5440    1.0228625   -11163.019    434.73416    299.74089 
    5450    1.0229734   -11164.818     383.9292    301.75598 
    5460    1.0230585   -11167.359    279.07023    306.05986 
    5470    1.0231219   -11170.692    293.38891    306.16552 
    5480    1.0231681   -11175.927    134.96214    311.07813 
    5490    1.0232015   -11182.243    309.67644    301.96872 
    5500    1.0232156   -11190.104    121.71514    303.57577 
    5510    1.0232189   -11198.179    100.11947    292.73119 
    5520    1.0232169   -11206.262   -9.8891885     291.0456 
    5530    1.0232153   -11213.301   -25.611418    290.08643 
    5540    1.0232147   -11219.417   -3.8876785    287.59504 
    5550    1.0232169    -11224.34   -240.38191    289.04972 
    5560    1.0232336   -11227.849   -242.47698    290.99383 
    5570    1.0232687   -11230.916   -131.18179    297.52128 
    5580    1.0233121   -11233.624    190.64943    297.03142 
    5590    1.0233406   -11236.266    658.49874    296.77057 
    5600    1.0233224    -11238.87    793.23729    300.15828 
    5610    1.0232464   -11241.569    668.77746    298.59313 
    5620    1.0231191   -11244.476    642.57552    296.56679 
    5630    1.0229419   -11247.175    554.46369    296.96643 
    5640    1.0227208   -11249.748    338.16899    297.14106 
    5650    1.0224725    -11252.28   -24.916838    296.71296 
    5660    1.0222209   -11254.606   -162.50284    292.35196 
    5670    1.0219771   -11256.474   -266.13911    293.76653 
    5680     1.021749   -11258.157    -452.4157    299.07914 
    5690    1.0215493   -11259.679   -440.50699    292.83209 
    5700    1.0213812   -11261.333   -622.44867    299.62377 
    5710    1.0212548   -11263.284   -618.62083    301.47016 
    5720    1.0211722   -11266.586   -567.20543    305.60726 
    5730    1.0211285   -11271.509   -303.19657    298.28154 
    5740     1.021107   -11278.426   -35.842298    295.84797 
    5750     1.021088   -11286.821    109.88683    287.68341 
    5760    1.0210637    -11296.28   -98.882438    291.24059 
    5770    1.0210447   -11306.091   -210.36702    287.23489 
    5780     1.021045   -11316.306   -638.23945    293.58952 
    5790    1.0210876   -11326.097    -520.2986    287.59267 
    5800    1.0211711   -11334.903   -481.70831    288.80216 
    5810    1.0212922   -11342.794    -584.8707      291.623 
    5820    1.0214559   -11349.153   -282.02646    280.35239 
    5830    1.0216457   -11353.802   -287.20375     286.8561 
    5840    1.0218575   -11356.578   -111.00525    282.15063 
    5850    1.0220814     -11357.6    59.529465    281.41443 
    5860     1.022306   -11357.056   -92.557287    289.58266 
    5870    1.0225387   -11355.014    -63.05885    286.07151 
    5880    1.0227813    -11352.25   -127.76758    295.64181 
    5890    1.0230324   -11348.353    273.08285    286.59502 
    5900    1.0232709   -11343.893    263.95073    293.71455 
    5910    1.0234896   -11338.321    521.43623    291.61986 
    5920    1.0236744   -11332.273    612.95391    291.41276 
    5930    1.0238158    -11325.35    707.03493    288.71973 
    5940     1.023909   -11317.806    616.43612    293.71524 
    5950    1.0239578   -11309.988    420.72968    302.37836 
    5960    1.0239727   -11302.393    667.22795    289.36077 
    5970    1.0239416   -11295.303    578.50778     297.7927 
    5980    1.0238677   -11288.472     405.5525    296.26763 
    5990    1.0237605   -11282.124    446.29182     295.3224 
    6000    1.0236185   -11276.356    564.56898    297.35257 
    6010    1.0234347   -11271.118    470.45946    294.54393 
    6020    1.0232132    -11266.37    530.37689    291.29425 
    6030    1.0229492   -11261.676     548.6375    297.35901 
    6040    1.0226412   -11257.203    619.74597    288.15264 
    6050    1.0222854   -11252.616    542.64073    288.66018 
    6060    1.0218865   -11247.514    238.74262    295.47141 
    6070    1.0214655   -11242.747    8.4622756    298.99556 
    6080    1.0210363   -11238.237    165.83169    293.15375 
    6090    1.0205925   -11234.298    108.17842    301.36854 
    6100    1.0201334   -11230.676    373.55324    292.88885 
    6110     1.019646   -11227.156    67.830045    295.84607 
    6120    1.0191494   -11223.758   -347.89248    304.14306 
    6130    1.0186698   -11220.703   -190.92104     298.3813 
    6140    1.0182036   -11218.563   -367.30108    304.97368 
    6150    1.0177576   -11216.752   -293.42394    298.08704 
    6160    1.0173311   -11215.385   -321.85184    297.43249 
    6170     1.016925   -11213.885   -468.21411    299.80179 
    6180     1.016551   -11212.827   -687.38959     303.7785 
    6190    1.0162232    -11211.84    -680.3487    295.47794 
    6200    1.0159445     -11211.2   -766.22009    302.05615 
    6210    1.0157182   -11210.582   -600.74646    296.85439 
    6220    1.0155362   -11210.219   -529.16949    296.67167 
    6230     1.015391   -11209.621   -414.18822    297.88289 
    6240    1.0152744   -11208.809   -237.94403    293.95456 
    6250    1.0151748   -11207.689   -20.510251    291.07458 
    6260    1.0150778   -11205.795   -78.834426    295.54786 
    6270     1.014986   -11203.222   -225.44732    297.26907 
    6280    1.0149103   -11200.664   -278.02306    301.40536 
    6290    1.0148507   -11197.666    61.868377    293.45762 
    6300    1.0147907   -11194.572     -141.046    303.20523 
    6310     1.014738   -11191.121   -34.114011     297.9878 
    6320    1.0146892   -11187.658    34.784236    294.71748 
    6330    1.0146377   -11183.161   -90.475059    298.14735 
    6340    1.0145934   -11177.988   -232.04883    299.57738 
    6350    1.0145643   -11172.158   -123.54729    298.16888 
    6360     1.014544   -11165.456   -29.893988    296.75309 
    6370    1.0145272    -11157.82   -230.75192    303.39258 
    6380    1.0145271   -11149.407    -442.3507     303.2099 
    6390     1.014561   -11141.148   -642.84916    307.48521 
    6400    1.0146401   -11133.179    -469.3553     305.5229 
    6410    1.0147523   -11125.608   -51.365682    300.08774 
    6420    1.0148717   -11118.472    86.872142    298.76445 
    6430    1.0149864   -11110.844    3.6930618    294.95551 
    6440     1.015103    -11103.32   -241.73324    308.90713 
    6450    1.0152344   -11096.231   -103.54699    304.91155 
    6460    1.0153757   -11090.349    26.348404    298.24762 
    6470    1.0155175   -11084.964    66.779462    299.25892 
    6480     1.015655    -11079.68   -29.479239    304.12327 
    6490     1.015796   -11075.336   -123.11835    305.60268 
    6500    1.0159456   -11071.869   -74.281037    304.62202 
    6510    1.0161044   -11069.485   -288.81191    306.77548 
    6520    1.0162848   -11068.395     -392.862    313.10197 
    6530     1.016493   -11068.531   -188.23999    304.31971 
    6540     1.016721   -11070.176   -484.66493    312.63248 
    6550    1.0169808   -11073.033   -253.52434    307.73544 
    6560    1.0172633   -11077.338   -112.18923    306.29491 
    6570     1.017556   -11082.672   -53.506952    308.15571 
    6580    1.0178528    -11088.87    165.97861    300.33846 
    6590    1.0181428   -11095.348    -27.61549    301.96556 
    6600    1.0184367   -11102.335    -267.6561    308.47466 
    6610    1.0187504   -11110.081   -193.27382    307.28747 
    6620    1.0190789   -11118.099    130.56943    302.64219 
    6630    1.0194009   -11125.951    321.48009    302.92555 
    6640    1.0196986   -11132.648    683.25318    294.84197 
    6650      1.01995   -11137.979    728.02779    296.95431 
    6660    1.0201498   -11141.958    548.17077    299.74224 
    6670    1.0203112   -11145.204    331.91079    300.28431 
    6680      1.02045   -11147.914    54.649137    303.21676 
    6690    1.0205848   -11150.713   -96.832602     304.0823 
    6700    1.0207259   -11153.233    17.192987    297.22542 
    6710    1.0208663   -11155.531    66.061552    301.45701 
    6720    1.0210029   -11157.707    103.62734     300.4258 
    6730    1.0211335    -11160.16     110.3872    302.30411 
    6740    1.0212558   -11162.691    160.51251    301.14294 
    6750    1.0213674    -11165.38    27.142553    301.43612 
    6760    1.0214778   -11168.458   -20.232282     299.0107 
    6770    1.0215898   -11171.273    95.651024    295.72456 
    6780    1.0216947   -11174.093    333.98184    297.18866 
    6790    1.0217757   -11176.496    560.89432    292.06411 
    6800    1.0218185   -11178.381    289.18699    296.09257 
    6810    1.0218401   -11179.973    6.9659465    299.56993 
    6820    1.0218596   -11181.693    1.2681477    302.09159 
    6830    1.0218783   -11184.121    171.76182    303.29831 
    6840    1.0218833   -11187.096    482.78628    297.50095 
    6850     1.021852   -11189.893     740.7013    294.66912 
    6860    1.0217668   -11192.848    845.22074    298.72647 
    6870    1.0216196   -11195.778    773.45384    298.69874 
    6880    1.0214165   -11198.902    382.14547    299.61571 
    6890    1.0211845    -11202.44    28.564276    300.92527 
    6900    1.0209471   -11206.153   -128.62625    300.85819 
    6910    1.0207163    -11210.35   -62.878172    293.73477 
    6920    1.0204923   -11214.197   -376.76894    292.64675 
    6930    1.0202954   -11217.832   -735.90017    300.08576 
    6940    1.0201483   -11221.564   -578.30708     296.8473 
    6950    1.0200422   -11225.395   -387.03455    293.99054 
    6960    1.0199654   -11228.945   -322.85792    290.94119 
    6970    1.0199128   -11231.932    -450.6405    295.74965 
    6980    1.0198912   -11234.858   -288.62858    291.74315 
    6990    1.0198911   -11237.091   -117.35536    289.29162 
    7000    1.0198999   -11238.677   -99.170461    293.11165 
    7010    1.0199162   -11239.518   -62.119981     289.7658 
    7020    1.0199383    -11239.83   -207.05796    294.66146 
    7030    1.0199748   -11239.301   -184.05926    289.52012 
    7040    1.0200259   -11237.921      -248.68    289.12169 
    7050    1.0200962   -11235.377    -389.8509    293.06787 
    7060    1.0201937   -11231.387     -350.847    291.54558 
    7070    1.0203177   -11226.385   -88.133789    292.71259 
    7080    1.0204481   -11219.749    228.70754    295.02798 
    7090    1.0205628   -11211.737    397.19952    295.56754 
    7100    1.0206505   -11202.782    444.94487    295.24112 
    7110    1.0207039   -11192.783     635.9463    297.19663 
    7120    1.0207109   -11182.155    767.66273    293.89637 
    7130    1.0206645   -11171.555    553.36993    295.80419 
    7140    1.0205767   -11161.077    378.52271    294.48914 
    7150    1.0204596   -11151.422    345.75661    301.46099 
    7160    1.0203151   -11143.122    572.16716    292.86855 
    7170    1.0201301    -11135.74    278.14953     297.6091 
    7180    1.0199222   -11129.395    103.09557    301.65564 
    7190    1.0197023   -11124.298    307.14891    300.46059 
    7200    1.0194594   -11120.331    380.13125     299.5341 
    7210    1.0191886   -11117.121    282.74445    296.47889 
    7220    1.0188952   -11114.285    141.87479    302.49776 
    7230    1.0185871   -11112.274    330.88495     302.3751 
    7240    1.0182519   -11110.408    540.20007     291.6587 
    7250    1.0178793   -11109.071    233.84347     305.7209 
    7260    1.0174808   -11107.661    551.44484    296.96574 
    7270     1.017042   -11106.882    525.86293    301.55815 
    7280    1.0165608   -11106.537    569.09373    302.41317 
    7290    1.0160334   -11106.263    734.81834    293.93437 
    7300    1.0154541   -11106.325    262.92439    305.21379 
    7310    1.0148496     -11106.5   -4.6092212    303.59372 
    7320    1.0142412   -11107.286   -110.68805    300.29488 
    7330      1.01364    -11108.82    -408.9732    307.29836 
    7340    1.0130638   -11110.575   -431.43739    294.66128 
    7350     1.012522   -11112.961   -928.71028    307.82444 
    7360    1.0120402    -11115.65   -836.66204    301.23152 
    7370    1.0116232   -11119.543   -1035.8146    302.33779 
    7380    1.0112781   -11123.774   -1009.3706    299.21891 
    7390    1.0110066   -11128.655   -897.01316    297.20709 
    7400    1.0108017   -11133.638   -1028.3161    300.79669 
    7410     1.010669   -11139.234    -891.8349    298.72118 
    7420    1.0106032     -11145.4   -834.55358    300.30154 
    7430    1.0105967   -11151.711   -670.01085      297.298 
    7440    1.0106416    -11158.34   -627.67948    296.61074 
    7450    1.0107332   -11164.912    -742.0659     296.9449 
    7460    1.0108798   -11171.453   -760.95521    295.01236 
    7470    1.0110827   -11177.371   -734.34722    292.68822 
    7480    1.0113423   -11183.023   -814.51867    294.49687 
    7490    1.0116635   -11187.986   -843.71882    294.85361 
    7500    1.0120492   -11192.608   -976.93512    298.73966 
    7510    1.0125064   -11197.259   -790.44388    299.27737 
    7520    1.0130226   -11201.713   -368.36079    292.15331 
[...]
  172040    1.0231638   -11224.825   -7.0906074    302.26166 
  172050    1.0231401   -11218.701   -75.661923    305.90997 
  172060    1.0231203   -11214.166    46.857371     305.2077 
  172070    1.0230948   -11211.037     478.2853    301.85927 
  172080    1.0230374   -11209.214    476.92535     305.1951 
  172090     1.022945   -11207.951    286.88372      302.721 
  172100    1.0228307    -11207.82    203.80564    305.47102 
  172110    1.0227005   -11208.158     209.5223    303.68202 
  172120     1.022555   -11209.354    160.87039    303.23546 
  172130    1.0223979   -11210.898    89.519151    299.04816 
  172140     1.022233   -11212.683   -9.3027712    301.85409 
  172150    1.0220674   -11214.597    19.529749    299.22761 
  172160    1.0219015   -11216.888   -142.38968    307.35629 
  172170    1.0217431   -11219.747   -56.921422    303.95955 
  172180    1.0215889   -11223.336    49.915039    301.22254 
  172190    1.0214295   -11227.419    191.21936    305.75202 
  172200    1.0212576   -11232.158    96.126411    303.99249 
  172210    1.0210791   -11237.444   -117.22234    303.70466 
  172220     1.020907   -11243.241   -244.04094      306.356 
  172230    1.0207502   -11249.886   -21.644919    303.18384 
  172240     1.020594   -11256.275    278.99367     295.0224 
  172250    1.0204209   -11262.352    67.819677    297.64665 
  172260    1.0202414    -11267.88   -67.536853    299.19929 
  172270    1.0200642   -11272.917   -81.030264    298.46946 
  172280    1.0198919   -11277.474   -46.260848    294.21669 
  172290    1.0197238   -11281.376   -222.73119     298.9133 
  172300    1.0195695   -11284.565   -258.48621    293.96814 
  172310    1.0194363   -11287.388   -464.91874    293.85793 
  172320    1.0193353   -11288.945   -635.13907    291.04111 
  172330    1.0192813   -11290.075   -795.18417    296.92856 
  172340    1.0192836   -11290.267    -638.8678    287.45288 
  172350    1.0193368   -11289.917   -823.90791    295.21271 
  172360    1.0194494   -11289.219   -863.84442    299.79419 
  172370    1.0196224   -11288.368   -407.45706    293.74552 
  172380    1.0198271   -11287.565    24.911721    295.58372 
  172390    1.0200315   -11286.465    292.76641     300.2861 
  172400    1.0202139   -11285.693    624.69894    302.76777 
  172410    1.0203521   -11285.434    867.69841    297.28211 
  172420    1.0204312   -11285.497    543.18741    304.40284 
  172430    1.0204681   -11285.799    424.81829    301.52014 
  172440    1.0204758   -11286.634     178.1824    299.40903 
  172450    1.0204707   -11287.593   -27.354299    298.84375 
  172460    1.0204685   -11288.709    -265.9908    301.43963 
  172470    1.0204834   -11289.896   -182.63413    296.93989 
  172480    1.0205125   -11291.188   -95.468057    298.59546 
  172490    1.0205485   -11292.498   -36.808827    302.94601 
  172500     1.020587   -11294.278    43.151215    302.26713 
  172510    1.0206211   -11296.487    272.43085    298.38104 
  172520    1.0206371   -11298.905    296.46194    301.60986 
  172530      1.02063   -11301.354    424.17611    296.08898 
  172540    1.0205945   -11303.697    239.54103    295.54462 
  172550    1.0205409   -11305.757    10.218713    295.75882 
  172560    1.0204851   -11307.334   -46.684841     292.4037 
  172570    1.0204337   -11308.582   -220.94818    296.09376 
  172580    1.0203955   -11309.096   -53.622154    288.10835 
  172590    1.0203645   -11309.041   -208.11265    293.00819 
  172600    1.0203484   -11307.936   -468.07517    294.25965 
  172610    1.0203656   -11306.546   -502.94068     297.8048 
  172620    1.0204177   -11304.684   -200.60392    293.52005 
  172630     1.020489   -11302.411    -376.6054    299.31455 
  172640    1.0205853   -11299.458   -214.75124     296.4306 
  172650    1.0206982   -11295.553    11.615312     295.1885 
  172660    1.0208137   -11290.604    29.736994    304.00434 
  172670    1.0209255   -11283.828    216.92208    297.00921 
  172680    1.0210266   -11275.548   -44.097846    305.12958 
  172690    1.0211264   -11264.828     269.9567    297.32389 
  172700    1.0212107   -11252.769    330.00541    304.47355 
  172710    1.0212695   -11239.439     526.5968    295.70458 
  172720    1.0212937   -11226.117    272.29099    307.60694 
  172730    1.0212949    -11213.66    358.25345    304.26198 
  172740    1.0212707   -11203.505    481.19571    300.24818 
  172750     1.021212   -11194.772    340.71336    304.54489 
  172760    1.0211272    -11187.76    188.07644    306.34482 
  172770    1.0210255   -11182.208    297.40453    299.48571 
  172780    1.0209034   -11178.073    138.32215    308.02508 
  172790    1.0207671   -11174.823    276.13467    300.60462 
  172800    1.0206113   -11172.688    177.91126    304.71902 
  172810    1.0204394   -11171.235    156.35444    305.20481 
  172820    1.0202541   -11170.661    63.727379    308.79631 
  172830    1.0200614   -11171.283    32.687771    306.17032 
  172840     1.019866   -11173.223   -143.36455    308.92086 
  172850    1.0196765   -11176.178   -139.30074    305.24781 
  172860    1.0194978   -11180.221   -393.14821     306.6942 
  172870    1.0193453   -11184.974   -646.87761    306.12257 
  172880    1.0192395   -11191.026   -800.96066    306.20688 
  172890    1.0191885   -11197.586   -557.73921    301.07903 
  172900     1.019179   -11204.681   -390.35853    298.34666 
  172910    1.0191993   -11211.132    -364.5793    291.71618 
  172920    1.0192493   -11217.116   -688.58404    301.41242 
  172930    1.0193481   -11222.977   -604.33233    298.46358 
  172940    1.0194937   -11228.572   -556.63994    296.28911 
  172950    1.0196818   -11233.823   -488.79917    296.37562 
  172960     1.019907   -11238.409   -175.23248    292.35203 
  172970    1.0201487   -11242.156    82.423735    291.77303 
  172980    1.0203908   -11245.101   -91.767474    295.35095 
  172990    1.0206429   -11247.546   -386.69078    301.49944 
  173000    1.0209228   -11250.265   -92.630218    298.77248 
  173010    1.0212128   -11252.931    307.25584    295.73579 
  173020    1.0214873   -11255.499    107.85694    303.00688 
  173030    1.0217549   -11258.269    211.45384    299.32473 
  173040    1.0220102   -11261.319    452.04771    298.60041 
  173050    1.0222345   -11264.107     650.9759    294.44507 
  173060    1.0224183   -11266.855    338.67204    299.42497 
  173070    1.0225779   -11269.567    202.58609    299.22732 
  173080    1.0227236   -11272.293    259.80455    298.01421 
  173090    1.0228535   -11275.221    153.15706    301.42165 
  173100    1.0229749   -11278.698   -54.526295    304.08106 
  173110    1.0230983   -11282.538    149.36865    299.18201 
  173120    1.0232115   -11287.161    546.57539    300.01778 
  173130    1.0232847   -11291.338    965.65337    289.81682 
  173140    1.0232926   -11295.512    689.32996    297.92217 
  173150    1.0232485   -11299.504    465.42584    299.38049 
  173160    1.0231672   -11303.997    525.38647     298.4962 
  173170    1.0230451   -11308.584    733.40914    294.22653 
  173180    1.0228708   -11313.378    439.32217    298.81899 
  173190    1.0226592    -11318.38    302.51618    297.29646 
  173200    1.0224211   -11323.784    288.95273    294.71073 
  173210    1.0221588   -11329.714    276.04033    296.07595 
  173220     1.021872   -11336.124    303.77335    294.91586 
  173230    1.0215583   -11343.021    305.46782     291.1704 
  173240    1.0212196   -11350.585    84.430138    292.36541 
  173250    1.0208691   -11358.291   -183.12012    288.48581 
  173260    1.0205296   -11366.856   -578.48188    294.33098 
  173270    1.0202246   -11376.075   -503.14547     289.7395 
  173280    1.0199528   -11385.878   -336.81261     286.5114 
  173290    1.0197025   -11395.466   -239.87231    284.50523 
  173300    1.0194677   -11404.101   -361.18432    281.16153 
  173310    1.0192567   -11411.693   -476.05489    284.76738 
  173320    1.0190757   -11417.644   -363.57639    278.30991 
  173330    1.0189232   -11422.025   -700.66174    285.65755 
  173340    1.0188171    -11424.81   -698.67624    283.20936 
  173350    1.0187612   -11426.188   -666.10237    284.55562 
  173360    1.0187534   -11426.205    -679.0928    288.24541 
  173370    1.0187949   -11424.806   -492.36221    282.25264 
  173380    1.0188743   -11421.539   -401.32466    283.52267 
  173390    1.0189859   -11416.241   -439.83647    289.92225 
  173400    1.0191294   -11408.753   -259.90408    289.72795 
  173410    1.0192958   -11399.694   -178.99261    293.26362 
  173420    1.0194757   -11388.391    85.565835    286.93599 
  173430     1.019656   -11375.866   -56.363859    300.53149 
  173440    1.0198396   -11362.611    113.25814    294.45666 
  173450    1.0200202    -11350.64    88.541493    298.27425 
  173460    1.0201961    -11340.05     148.5553    298.78355 
  173470    1.0203627    -11331.58    360.20954    297.14498 
  173480    1.0205047   -11324.939    617.30952    294.83692 
  173490    1.0206049   -11319.568    585.00913    292.16343 
  173500     1.020666   -11314.804     195.5457     294.4113 
  173510    1.0207144   -11310.739   -262.22662    299.71154 
  173520    1.0207799   -11307.176   -256.02316    293.66633 
  173530    1.0208647   -11304.034   -70.606795    296.51848 
  173540    1.0209548   -11301.046    242.84518    294.36578 
  173550    1.0210279   -11297.654    548.70764    287.44238 
  173560    1.0210652   -11294.015    401.25883    298.51039 
  173570    1.0210714   -11289.938     305.3391    300.32906 
  173580    1.0210569   -11286.871     118.9605    306.06235 
  173590    1.0210285   -11284.093    503.41063    295.48426 
  173600    1.0209643   -11281.854    625.09196    299.24134 
  173610    1.0208542   -11279.676    477.13319     299.6001 
  173620    1.0207056   -11277.267    366.42775    294.45035 
  173630    1.0205297   -11274.694    111.67659    296.06384 
  173640    1.0203446   -11272.141    -228.7595    302.40764 
  173650    1.0201699    -11269.25   -152.32606    292.23511 
  173660    1.0200077    -11266.49   -450.58241    300.77278 
  173670    1.0198738   -11263.482    -492.5182    297.53017 
  173680    1.0197731   -11260.079   -348.77707    291.57297 
  173690    1.0197008   -11256.678   -563.40207    303.74722 
  173700    1.0196648   -11252.929   -410.59758    297.57275 
  173710    1.0196597   -11249.702    -263.0407    300.52045 
  173720    1.0196719   -11246.135    45.900428    296.33917 
  173730     1.019684   -11242.776    11.250798    301.05749 
  173740     1.019694    -11239.35     86.32256    299.94898 
  173750    1.0196978   -11235.844    138.08455    296.68648 
  173760    1.0196941   -11232.587   -128.28691    306.05387 
  173770     1.019696   -11229.302   -17.755978    300.74973 
  173780    1.0197002   -11226.857    166.70612    301.19187 
  173790    1.0196917   -11224.354    309.12474    300.51502 
  173800    1.0196596   -11222.202    439.50896    303.75802 
  173810    1.0195945   -11220.397    545.93814    299.83004 
  173820     1.019491    -11218.72    247.54948    299.99316 
  173830    1.0193691   -11217.257   -271.95503    307.40281 
  173840    1.0192608   -11216.305   -117.80959    298.08759 
  173850    1.0191623   -11215.682   -205.31948    299.95849 
  173860    1.0190778   -11215.236   -514.19273    304.98806 
  173870    1.0190281   -11215.267   -410.83062    298.12925 
  173880    1.0190075   -11215.448   -235.24711    296.50721 
  173890    1.0190075   -11215.811   -450.51029    303.54743 
  173900    1.0190387   -11216.715   -483.76872    305.45869 
  173910    1.0191039   -11218.494   -129.57556    298.53387 
  173920    1.0191818   -11221.342    13.759861    304.65008 
  173930    1.0192556   -11224.672    535.87839    291.66738 
  173940    1.0192959    -11228.44    578.16106    294.78175 
  173950    1.0192934    -11231.88    393.42942    300.23652 
  173960    1.0192624   -11236.566    177.97605    303.75972 
  173970    1.0192156   -11241.757    307.27077    292.68453 
  173980    1.0191478   -11247.373    88.780628    299.57254 
  173990    1.0190727   -11253.476   -237.46408    302.19197 
  174000    1.0190149   -11260.582   -617.76655    302.95176 
  174010     1.018999   -11268.225   -575.61439    296.89999 
  174020    1.0190255   -11276.091   -392.31759    295.12647 
  174030    1.0190825     -11283.5   -376.64516    291.91344 
  174040    1.0191701   -11290.019   -604.86067    291.84169 
  174050    1.0193027   -11296.042   -568.97971    296.63601 
  174060    1.0194769   -11301.178   -184.73536    289.70254 
  174070    1.0196722   -11305.791   -298.89076    293.99025 
  174080    1.0198921   -11309.506   -450.81877    293.85723 
  174090    1.0201477   -11312.598   -460.00181    294.25588 
  174100    1.0204423   -11315.333   -412.10343    293.22762 
  174110    1.0207724   -11317.227   -435.97197    293.79101 
  174120    1.0211398   -11319.213   -399.76005    302.03789 
  174130    1.0215401   -11321.006   -32.958639    294.33373 
  174140     1.021951   -11322.665    74.280886    295.43365 
  174150    1.0223628   -11324.373    189.29405    302.13983 
  174160    1.0227628   -11325.741    683.55067    288.61011 
  174170    1.0231263   -11327.081    289.57222    300.48734 
  174180    1.0234699   -11328.149    115.24174    302.77384 
  174190    1.0238084   -11330.001    308.13378    298.18225 
  174200    1.0241302   -11331.884    384.75165    297.52674 
  174210    1.0244298   -11334.155    201.59707    300.50496 
  174220    1.0247198   -11336.928   -85.470034    303.47825 
  174230     1.025017   -11340.716    28.358738    299.59337 
  174240    1.0253184   -11345.184    17.065615    296.55543 
  174250     1.025622   -11350.229    10.677376    297.41355 
  174260    1.0259277   -11355.549     270.4164    289.72135 
  174270    1.0262207   -11360.962    116.58859    295.12938 
  174280    1.0265078   -11366.847    144.98139    295.05112 
  174290    1.0267878    -11372.92    257.72167    290.13161 
  174300    1.0270537   -11379.095    217.26014     290.6453 
  174310    1.0273068   -11385.165    273.63348    291.03708 
  174320     1.027543   -11390.981    263.16933    291.57275 
  174330    1.0277645    -11396.95    75.831474    294.21145 
  174340    1.0279801   -11402.558    328.64207    286.82956 
  174350     1.028176   -11407.824    456.52225    290.14298 
  174360      1.02834   -11412.253    608.07395    284.96037 
  174370    1.0284623   -11415.549    646.52354    279.15821 
  174380    1.0285411   -11417.214    238.73582    290.48737 
  174390    1.0286009   -11417.726    14.654367    290.89112 
  174400    1.0286627   -11417.865   -235.47196    295.01841 
  174410    1.0287381   -11417.075   -83.987689    292.62773 
  174420    1.0288206    -11415.79    213.63888    287.55667 
  174430    1.0288905   -11412.973    210.21278    285.58989 
  174440    1.0289482   -11408.556   -114.46758     293.0726 
  174450    1.0290136   -11402.422   -286.00795    293.56061 
  174460    1.0291005   -11395.232   -245.95265       296.39 
  174470    1.0292043   -11386.771    74.206122    292.36456 
  174480    1.0293061   -11377.305    121.18172    299.72018 
  174490    1.0293976   -11367.359     498.0249    296.70583 
  174500     1.029455   -11357.605    737.95553    295.36105 
  174510    1.0294593    -11347.81      761.537    294.96567 
  174520    1.0294068    -11338.45    811.04634    290.44805 
  174530    1.0292946    -11329.41    673.80835    290.58999 
  174540    1.0291334   -11320.761    211.10475    297.81857 
  174550     1.028955   -11313.135   -247.03047    300.88116 
  174560    1.0287892   -11306.694   -264.59138    297.40545 
  174570    1.0286399   -11301.628    17.516661    295.72642 
  174580     1.028486   -11297.096    328.84187    297.30057 
  174590    1.0283061   -11292.867    536.78892    289.55694 
  174600    1.0280881   -11288.924    349.90844    296.53943 
  174610    1.0278382   -11284.617     393.7679    298.21813 
  174620    1.0275571   -11281.358    388.74488    304.43675 
  174630      1.02724   -11278.158    689.15177    290.35198 
  174640    1.0268746   -11275.635    227.81269    305.96793 
  174650     1.026481   -11273.147    423.77439    297.97324 
  174660    1.0260544   -11271.144    329.92049    296.11755 
  174670    1.0255978   -11269.094    220.05739    297.71713 
  174680    1.0251207     -11266.9   -90.693993    298.42775 
  174690    1.0246436   -11264.668   -360.44015     301.0712 
  174700    1.0241856   -11262.874   -290.85211    300.86114 
  174710    1.0237433   -11261.046   -227.90992    294.57694 
  174720    1.0233163   -11259.348   -515.93556    301.22761 
  174730    1.0229199   -11257.628   -588.34395    304.31033 
  174740    1.0225616   -11256.679   -432.77554    300.86506 
  174750    1.0222312   -11256.056    -264.2849    296.20622 
  174760    1.0219173   -11255.394   -221.83568    296.81749 
  174770    1.0216178   -11254.644   -378.79829    302.02782 
  174780    1.0213429    -11254.09   -539.72209    301.93256 
  174790    1.0211041   -11253.828   -592.73435    299.30315 
  174800    1.0209065   -11254.228   -583.40899    305.09972 
  174810    1.0207468   -11254.807   -274.00674    296.34378 
  174820    1.0206092   -11256.001   -347.72254    300.13986 
  174830    1.0204972   -11257.266   -674.28195      302.831 
  174840    1.0204333   -11259.548    -847.3172    303.54005 
  174850    1.0204287   -11262.488   -623.13177    297.87749 
  174860    1.0204701    -11266.29   -421.01697    300.33099 
  174870    1.0205434   -11270.749   -211.49687    295.17682 
  174880    1.0206358   -11275.556   -413.85236    296.81461 
  174890    1.0207594   -11280.977   -602.52426    299.02561 
  174900     1.020928   -11287.096   -511.20455    295.43022 
  174910    1.0211367   -11293.642   -433.19638    294.85348 
  174920    1.0213793   -11300.364   -314.81467    290.18761 
  174930    1.0216492   -11306.934   -260.03139    291.88981 
  174940    1.0219402   -11312.557    -122.9092    283.12747 
  174950    1.0222475   -11317.385   -341.34799    288.43298 
  174960    1.0225838   -11320.964    -663.7794    289.73875 
  174970    1.0229727   -11324.181   -813.73456    294.17374 
  174980    1.0234242   -11326.551   -619.23003     287.1357 
  174990    1.0239301    -11328.35   -748.75618    293.54271 
  175000    1.0244951   -11329.539   -650.87648    293.52736 
  175010    1.0251136   -11330.225   -382.62169    290.62406 
  175020    1.0257675   -11330.055   -174.56873    291.51564 
  175030    1.0264421   -11329.281   -63.043071    295.38309 
  175040    1.0271268     -11327.7    270.55172    290.04589 
  175050     1.027799   -11325.024    494.52891    291.65233 
  175060    1.0284424    -11321.32    556.44399    294.39949 
  175070    1.0290494   -11316.251    747.23998    287.24832 
  175080    1.0296102   -11309.812    526.82354    296.30573 
  175090    1.0301349    -11301.83    495.90539     295.1959 
  175100    1.0306275   -11292.896    461.12511    299.82515 
  175110      1.03109   -11283.585    493.90363    301.57005 
  175120    1.0315183    -11274.34    729.77851    299.48594 
  175130    1.0318968   -11265.404    910.32456    303.87585 
  175140    1.0322112    -11257.43    1143.0488    302.14742 
  175150    1.0324421   -11250.082    1385.9239    300.00937 
  175160    1.0325739   -11243.814    1419.7711    302.48922 
  175170    1.0326037    -11238.34    1194.0099     298.9788 
  175180    1.0325465   -11233.589    853.76857    300.58388 
  175190     1.032425   -11229.622    673.20528    303.69351 
  175200    1.0322499   -11226.279    832.85681    296.13058 
  175210    1.0320159   -11223.454    633.49695    298.16286 
  175220    1.0317335   -11220.838    334.89708    304.89165 
  175230    1.0314229   -11218.996     243.1545    303.04928 
  175240     1.031091   -11217.911    349.24326    300.24172 
  175250    1.0307306   -11217.371    433.48038    302.87035 
