ITEM: TIMESTEP
0
ITEM: NUMBER OF ATOMS
3000
ITEM: BOX BOUNDS pp pp pp
-2.6014103360754959e-01 3.1260141033607532e+01
-2.6014103360754959e-01 3.1260141033607532e+01
-2.6014103360754959e-01 3.1260141033607532e+01
ITEM: ATOMS id type xs ys zs
603 1 0.0145533 0.103984 0.188863
633 1 0.0594739 0.15682 0.21676
336 1 0.0551995 0.114365 0.101902
636 1 0.133921 0.0860394 0.197287
366 1 0.128718 0.209567 0.117963
666 1 0.15397 0.183569 0.240973
601 2 0.0329206 0.0792559 0.196458
31 2 0.0891107 0.153918 0.0133666
631 2 0.065911 0.17745 0.193533
304 2 0.147493 0.0246297 0.137303
334 2 0.0715674 0.0875424 0.106278
634 2 0.139915 0.116009 0.188778
602 1 0.0155166 0.0527304 0.196357
332 1 0.000812779 0.193601 0.111014
632 1 0.0387718 0.188748 0.181603
305 1 0.131154 0.0511239 0.131171
35 1 0.177534 0.123787 0.100916
335 1 0.0643644 0.0752653 0.134631
635 1 0.114296 0.133892 0.194289
364 2 0.130638 0.182192 0.102043
664 2 0.180252 0.189004 0.257891
65 1 0.0747132 0.239327 0.0577339
365 1 0.115535 0.159466 0.118228
902 1 0.138119 0.0100041 0.255548
901 2 0.121866 0.0372409 0.254836
931 2 0.0932133 0.140615 0.288626
903 1 0.124818 0.0520499 0.282737
933 1 0.0918308 0.170837 0.298176
966 1 0.137618 0.217117 0.299321
964 2 0.113354 0.229117 0.315867
963 1 0.0409831 0.237408 0.312411
36 1 0.188536 0.0847704 0.0686577
2766 1 0.149044 0.206376 0.0162152
273 1 0.06232 0.0302466 0.0739858
932 1 0.112627 0.124361 0.307743
306 1 0.177644 0.0320641 0.143796
331 2 0.00125389 0.163106 0.102276
302 1 0.00155694 0.0152959 0.139846
928 2 0.0106823 0.0624574 0.29441
4 2 0.152716 0.0571926 0.0145172
663 1 0.0947114 0.232298 0.21187
32 1 0.0733178 0.146031 0.0397274
961 2 0.016611 0.232486 0.292706
96 1 0.149636 0.249256 0.0744206
6 1 0.126588 0.0409283 0.0222216
962 1 0.00175093 0.205639 0.300766
930 1 0.0379427 0.0661406 0.278604
271 2 0.063106 0.00421273 0.0558713
934 2 0.16465 0.0863541 0.329217
935 1 0.193617 0.0882136 0.316411
2764 2 0.178484 0.2122 0.00592484
33 1 0.104019 0.128358 0.00192358
39 1 0.318866 0.123565 0.0119056
34 2 0.20005 0.103507 0.0915244
309 1 0.218884 0.0253228 0.0404656
576 1 0.273238 0.0182505 0.144477
338 1 0.242131 0.098072 0.222396
609 1 0.285176 0.0796998 0.281426
339 1 0.211109 0.11417 0.184154
639 1 0.220144 0.143628 0.296062
69 1 0.250156 0.16357 0.0816245
669 1 0.297754 0.197636 0.272387
12 1 0.353036 0.0702967 0.116175
312 1 0.332784 0.0403821 0.181711
342 1 0.346365 0.13322 0.271258
372 1 0.300148 0.247163 0.169869
307 2 0.250213 0.0230915 0.03599
607 2 0.281534 0.0503529 0.269936
337 2 0.240962 0.113833 0.194888
637 2 0.245921 0.129742 0.30828
10 2 0.370775 0.0683113 0.0899467
310 2 0.329047 0.0710752 0.174607
340 2 0.331367 0.149158 0.24829
640 2 0.37581 0.109733 0.32087
608 1 0.268737 0.0317756 0.292244
575 1 0.232495 0.0471215 0.130675
11 1 0.356852 0.0487391 0.0692203
311 1 0.298323 0.0787271 0.176604
341 1 0.331353 0.131865 0.221691
344 1 0.367897 0.151034 0.12013
665 1 0.204478 0.194766 0.238234
67 2 0.246993 0.194201 0.0739917
667 2 0.279357 0.220896 0.283659
368 1 0.220903 0.220943 0.13827
668 1 0.286963 0.226674 0.313913
68 1 0.22587 0.197119 0.0505008
42 1 0.380466 0.174299 0.0490805
672 1 0.396904 0.197554 0.222112
610 2 0.378393 0.0200627 0.245426
345 1 0.351606 0.182999 0.157504
38 1 0.28891 0.081427 0.0152254
343 2 0.373076 0.160942 0.14982
314 1 0.393258 0.0781538 0.213976
40 2 0.349157 0.16946 0.0473861
15 1 0.3979 0.00423223 0.137012
638 1 0.26876 0.151414 0.312183
369 1 0.220129 0.180621 0.17079
641 1 0.399089 0.105496 0.299736
367 2 0.213876 0.211576 0.167756
370 2 0.319235 0.231236 0.18958
574 2 0.241554 0.0198235 0.144064
371 1 0.301901 0.211735 0.207629
612 1 0.352184 0.00431329 0.253884
41 1 0.333888 0.195762 0.0564164
611 1 0.401644 0.0137582 0.26607
2750 1 0.542731 0.165639 0.0379822
618 1 0.472003 0.0635787 0.223289
315 1 0.409535 0.120197 0.188454
45 1 0.43644 0.0950374 0.100314
645 1 0.465903 0.175179 0.292637
675 1 0.546144 0.241628 0.266677
318 1 0.528941 0.0926897 0.131179
348 1 0.517746 0.202026 0.119084
648 1 0.472285 0.146373 0.20785
2749 2 0.55637 0.144793 0.0576282
313 2 0.415552 0.100691 0.21274
43 2 0.459751 0.110419 0.115365
643 2 0.468545 0.14893 0.310259
316 2 0.553246 0.0883449 0.151101
616 2 0.497048 0.0446151 0.218854
46 2 0.552233 0.0482364 0.0383223
346 2 0.49308 0.22012 0.110677
646 2 0.503167 0.153415 0.209659
44 1 0.470034 0.134358 0.0972628
317 1 0.553911 0.111958 0.172279
617 1 0.514432 0.0555402 0.194668
47 1 0.524089 0.0391104 0.0497723
347 1 0.468331 0.213643 0.12944
647 1 0.514572 0.143845 0.237674
670 2 0.418913 0.207574 0.242647
2744 1 0.411515 0.0516399 0.014903
671 1 0.439784 0.226111 0.22757
673 2 0.518483 0.244733 0.2819
76 2 0.445999 0.17376 0.026298
621 1 0.556811 0.0446435 0.278829
2715 1 0.450002 0.000649262 0.0420591
619 2 0.587061 0.0534121 0.275012
320 1 0.597928 0.0451977 0.164928
620 1 0.592552 0.0799266 0.291545
350 1 0.584663 0.173679 0.198056
77 1 0.452593 0.196412 0.0475083
946 2 0.576372 0.159874 0.29939
2714 1 0.444922 0.00301785 0.0935623
2776 2 0.54811 0.229688 0.0158765
48 1 0.57541 0.0339181 0.0545806
2713 2 0.465378 0.00528768 0.0694191
948 1 0.54594 0.168778 0.300459
13 2 0.423953 0.00998789 0.154176
614 1 0.476238 0.077506 0.315491
2751 1 0.546644 0.115484 0.050358
947 1 0.594108 0.184058 0.289042
14 1 0.418162 0.0335551 0.17461
2745 1 0.422488 0.102218 0.0125614
293 1 0.777114 0.0115102 0.0346415
1189 2 0.660567 0.0087743 0.328801
81 1 0.600255 0.196494 0.0665801
1191 1 0.662722 0.0279825 0.303643
19 2 0.685148 0.0105863 0.0375879
594 1 0.732731 0.0662834 0.132988
321 1 0.610224 0.0361738 0.21444
51 1 0.61399 0.12303 0.0872528
351 1 0.619595 0.152575 0.166144
651 1 0.66354 0.219594 0.265923
24 1 0.722192 0.112574 0.0632255
324 1 0.66417 0.108849 0.23426
624 1 0.729071 0.0130658 0.214891
54 1 0.681143 0.189744 0.0562496
354 1 0.692406 0.176471 0.175737
653 1 0.655704 0.135017 0.308662
684 1 0.733674 0.240774 0.283434
319 2 0.61869 0.0310455 0.184298
49 2 0.641402 0.108056 0.0928068
349 2 0.60143 0.178033 0.171477
649 2 0.63457 0.219014 0.253003
22 2 0.744775 0.0979594 0.0464048
322 2 0.67288 0.116826 0.204815
622 2 0.701918 0.0185613 0.230351
52 2 0.712256 0.193489 0.0611942
352 2 0.709854 0.197419 0.159512
652 2 0.67371 0.108943 0.307101
50 1 0.636896 0.0855124 0.11467
650 1 0.635887 0.230753 0.223558
23 1 0.773159 0.109656 0.0544059
323 1 0.684317 0.0912773 0.189882
53 1 0.717369 0.200217 0.0917738
353 1 0.704689 0.22657 0.170918
357 1 0.769433 0.133427 0.179152
355 2 0.788673 0.128065 0.154503
356 1 0.781648 0.148214 0.131026
79 2 0.621633 0.212887 0.0833361
682 2 0.734864 0.228488 0.254208
80 1 0.61671 0.208111 0.114311
956 1 0.761019 0.117486 0.271638
623 1 0.678156 0.0209564 0.209467
325 2 0.795745 0.0421857 0.224272
592 2 0.710112 0.0440557 0.133912
326 1 0.792111 0.0252607 0.250859
957 1 0.756016 0.16598 0.254108
955 2 0.771729 0.138647 0.250567
2754 1 0.641688 0.117522 0.0288888
593 1 0.694195 0.0440188 0.106468
1193 1 0.728403 0.00190075 0.304399
86 1 0.784676 0.243102 0.118018
294 1 0.792759 0.00166553 0.083039
981 1 0.660342 0.239439 0.325431
27 1 0.899802 0.0286942 0.0203889
596 1 0.859509 0.0266603 0.144329
2727 1 0.814087 0.0665803 0.00167083
958 2 0.960181 0.156577 0.310725
29 1 0.967356 0.125773 0.0182809
116 1 0.86695 0.233603 0.0221747
333 1 0.971493 0.152584 0.0991024
303 1 0.969824 0.0129865 0.0989596
301 2 0.983135 0.0322537 0.120363
595 2 0.832072 0.0324316 0.129483
327 1 0.808867 0.0702061 0.231285
627 1 0.843494 0.0972147 0.299749
57 1 0.851943 0.066374 0.0767829
657 1 0.867408 0.134846 0.230226
87 1 0.815114 0.217069 0.0851577
687 1 0.818822 0.194242 0.283814
30 1 0.985275 0.0939097 0.054991
330 1 0.94239 0.0281158 0.210564
360 1 0.934062 0.0849893 0.134879
660 1 0.936701 0.142116 0.202939
390 1 0.925539 0.195427 0.146229
25 2 0.926773 0.0221774 0.0357698
625 2 0.868804 0.0843343 0.285607
55 2 0.850982 0.0863396 0.0521463
655 2 0.87308 0.144288 0.200474
28 2 0.983754 0.0991684 0.0237412
328 2 0.928061 0.0563995 0.211663
59 1 0.939078 0.187467 0.0500224
58 2 0.914232 0.172283 0.037428
358 2 0.924623 0.109958 0.117734
658 2 0.966026 0.152419 0.209299
626 1 0.88886 0.0734803 0.307663
56 1 0.874785 0.107183 0.0544918
656 1 0.846992 0.140131 0.182905
329 1 0.902869 0.0547514 0.230877
359 1 0.896067 0.11948 0.127754
659 1 0.970041 0.154156 0.240722
61 2 0.993281 0.214906 0.00976076
597 1 0.813799 0.0507951 0.147796
85 2 0.804286 0.218353 0.114951
685 2 0.848794 0.202679 0.289895
388 2 0.91231 0.217631 0.127831
686 1 0.858123 0.224487 0.268825
389 1 0.883739 0.207747 0.118212
960 1 0.934711 0.166332 0.326931
26 1 0.948938 0.043395 0.0277039
959 1 0.956159 0.126375 0.301882
689 1 0.950856 0.245154 0.262116
387 1 0.807325 0.23557 0.176374
690 1 0.927709 0.227084 0.219434
115 2 0.836578 0.242768 0.0224947
929 1 0.991531 0.0431262 0.278099
688 2 0.925919 0.248483 0.242788
60 1 0.908961 0.183147 0.00809033
363 1 0.0263656 0.27229 0.119576
66 1 0.0635896 0.288473 0.0456947
361 2 0.00747879 0.269029 0.144858
64 2 0.0675273 0.267894 0.0695168
122 1 0.0794853 0.469615 0.0159783
753 1 0.0366032 0.463996 0.200296
752 1 0.0568072 0.488474 0.241242
2795 1 0.131858 0.381463 0.0435851
393 1 0.0858386 0.338522 0.166448
693 1 0.0518315 0.323866 0.233848
423 1 0.069917 0.429794 0.0976138
696 1 0.113623 0.311994 0.260306
126 1 0.180115 0.431244 0.081962
426 1 0.150275 0.400949 0.213932
661 2 0.110525 0.259675 0.209233
91 2 0.0159941 0.341672 0.010141
391 2 0.10866 0.343271 0.144927
691 2 0.035797 0.334833 0.208765
121 2 0.0594061 0.446534 0.0243812
421 2 0.0968588 0.438228 0.112089
94 2 0.166689 0.273436 0.0858673
694 2 0.129584 0.337309 0.27084
124 2 0.183227 0.417325 0.053623
424 2 0.139958 0.430863 0.216224
751 2 0.0477797 0.491692 0.210999
362 1 0.0227914 0.278882 0.170838
662 1 0.112519 0.26783 0.178638
392 1 0.108349 0.373625 0.135706
692 1 0.00621421 0.342218 0.217531
422 1 0.0978635 0.469804 0.114997
95 1 0.147354 0.294284 0.09994
395 1 0.18511 0.34724 0.13109
425 1 0.150787 0.447699 0.191611
420 1 0.00929054 0.362069 0.0738525
2796 1 0.13208 0.336826 0.0172878
418 2 0.0174711 0.36916 0.103674
1022 1 0.0678904 0.392411 0.296844
1021 2 0.0555361 0.411183 0.27445
695 1 0.160752 0.331998 0.268227
427 2 0.198595 0.477714 0.147606
1023 1 0.0769434 0.415748 0.251485
725 1 0.170865 0.445841 0.283786
123 1 0.0730239 0.418323 0.0193581
1054 2 0.100339 0.495738 0.304391
1056 1 0.105316 0.469736 0.321873
419 1 0.0286337 0.34317 0.118042
2794 2 0.114266 0.356692 0.0344494
965 1 0.123043 0.254856 0.331683
992 1 0.0316809 0.310971 0.32501
159 1 0.223067 0.473045 0.0444316
998 1 0.225437 0.329733 0.32573
1031 1 0.309854 0.44982 0.322134
726 1 0.214225 0.422055 0.299217
132 1 0.380281 0.449545 0.0757693
74 1 0.36795 0.264431 0.0815339
130 2 0.367897 0.478374 0.0804664
724 2 0.200452 0.45022 0.294367
999 1 0.257696 0.36682 0.309363
435 1 0.371468 0.498518 0.213204
125 1 0.21073 0.401547 0.0525535
72 1 0.300742 0.30627 0.0402106
396 1 0.215168 0.386313 0.147021
1004 1 0.394706 0.25979 0.269734
394 2 0.208945 0.355386 0.150379
399 1 0.243521 0.306046 0.127022
699 1 0.200575 0.268716 0.216071
129 1 0.313079 0.409788 0.0661027
729 1 0.245365 0.447435 0.220056
402 1 0.338001 0.343289 0.190429
702 1 0.319441 0.312765 0.266511
432 1 0.354602 0.414771 0.169514
732 1 0.363855 0.399691 0.255821
397 2 0.265437 0.283136 0.125877
697 2 0.209033 0.29487 0.231911
127 2 0.285259 0.395946 0.0597053
727 2 0.256269 0.417915 0.216033
70 2 0.330739 0.315515 0.0448116
100 2 0.387742 0.377695 0.0897998
400 2 0.342151 0.326714 0.163698
700 2 0.301189 0.33017 0.247264
430 2 0.347202 0.44315 0.181613
730 2 0.387598 0.379976 0.248465
398 1 0.258034 0.262558 0.102894
698 1 0.209158 0.319653 0.212104
128 1 0.2868 0.365154 0.0671861
428 1 0.229743 0.476654 0.141672
728 1 0.262459 0.40498 0.244334
101 1 0.366636 0.355508 0.0815046
701 1 0.273668 0.315166 0.242365
431 1 0.315649 0.446245 0.182785
731 1 0.379075 0.350173 0.255221
997 2 0.227238 0.358895 0.313367
969 1 0.218336 0.260239 0.311441
75 1 0.369983 0.269439 0.133058
1030 2 0.319285 0.421478 0.311443
401 1 0.31504 0.31217 0.155956
73 2 0.382073 0.25416 0.108021
99 1 0.202452 0.30019 0.0373036
1003 2 0.386332 0.28481 0.287351
461 1 0.314035 0.493776 0.108572
71 1 0.349592 0.301117 0.0237451
97 2 0.222734 0.321524 0.0254695
1065 1 0.387192 0.490765 0.295617
1032 1 0.343722 0.411198 0.32887
2831 1 0.341373 0.488329 0.00703603
134 1 0.468751 0.479181 0.121012
2833 2 0.431758 0.410152 0.00995367
1063 2 0.406531 0.494295 0.320518
110 1 0.580301 0.347553 0.0339497
2834 1 0.458772 0.414292 0.0260667
2835 1 0.408527 0.402323 0.0300917
438 1 0.563876 0.492876 0.221095
2808 1 0.476897 0.324271 0.025226
2837 1 0.56178 0.436718 0.0106218
678 1 0.547788 0.273416 0.150093
2864 1 0.468883 0.486731 0.0211752
676 2 0.54056 0.280592 0.180139
374 1 0.410803 0.292544 0.197071
677 1 0.509129 0.278961 0.184133
2836 2 0.56285 0.468421 0.0111831
375 1 0.451364 0.318443 0.177885
378 1 0.548546 0.283504 0.0634367
102 1 0.40465 0.367454 0.114614
105 1 0.4554 0.285452 0.0965824
405 1 0.432159 0.381984 0.197038
705 1 0.454736 0.355772 0.268701
735 1 0.452568 0.473026 0.258309
108 1 0.527292 0.422185 0.087947
408 1 0.518068 0.375317 0.170281
738 1 0.551696 0.40058 0.263857
373 2 0.441595 0.290653 0.189667
103 2 0.465067 0.314444 0.0880677
403 2 0.444955 0.382858 0.168021
703 2 0.484489 0.36668 0.270209
733 2 0.466101 0.454691 0.236236
376 2 0.563746 0.299696 0.0860923
106 2 0.496397 0.419357 0.0813136
406 2 0.547302 0.373249 0.182431
706 2 0.594996 0.309908 0.277109
136 2 0.597411 0.427029 0.119391
436 2 0.586484 0.486501 0.199769
736 2 0.567594 0.418861 0.284341
674 1 0.51363 0.275297 0.288886
104 1 0.496597 0.316369 0.0910163
404 1 0.44053 0.411615 0.155374
704 1 0.486464 0.394212 0.25457
734 1 0.459939 0.466505 0.207445
377 1 0.591277 0.285369 0.092669
107 1 0.484831 0.393513 0.0956243
407 1 0.549839 0.346559 0.199394
737 1 0.547156 0.437252 0.300169
137 1 0.593483 0.458478 0.120817
133 2 0.452255 0.485005 0.147479
109 2 0.583268 0.372137 0.014118
1005 1 0.407869 0.289337 0.310202
168 1 0.548317 0.499423 0.0818505
138 1 0.581039 0.413255 0.142816
1007 1 0.54022 0.352846 0.327292
2806 2 0.49774 0.320462 0.00161294
437 1 0.612397 0.475887 0.214681
83 1 0.774458 0.283294 0.00818951
741 1 0.672617 0.465766 0.232614
2780 1 0.650294 0.274175 0.0248415
683 1 0.746174 0.250222 0.234053
708 1 0.614287 0.324467 0.297661
982 2 0.786612 0.291008 0.314618
707 1 0.611514 0.301169 0.251471
739 2 0.683505 0.494899 0.226353
2779 2 0.666939 0.301135 0.0264507
381 1 0.646926 0.30423 0.159593
681 1 0.715641 0.341852 0.206174
384 1 0.719518 0.290234 0.0799995
2781 1 0.695304 0.296876 0.0128929
411 1 0.659383 0.332731 0.0837825
711 1 0.669811 0.389695 0.259209
141 1 0.649263 0.413266 0.0680537
114 1 0.767805 0.403348 0.0402276
414 1 0.712737 0.433213 0.162301
744 1 0.758405 0.48667 0.222444
379 2 0.634657 0.279333 0.17496
679 2 0.726598 0.314246 0.195023
409 2 0.652466 0.346566 0.111482
709 2 0.653187 0.409002 0.240304
139 2 0.668654 0.420139 0.0439031
439 2 0.673627 0.499806 0.130159
382 2 0.747015 0.298187 0.093682
112 2 0.796518 0.390404 0.0440414
412 2 0.72014 0.406123 0.147542
712 2 0.788292 0.400248 0.268132
442 2 0.750031 0.48913 0.0450397
742 2 0.780741 0.478738 0.201355
380 1 0.603 0.281414 0.174889
680 1 0.722816 0.313311 0.163537
410 1 0.623195 0.358735 0.110206
710 1 0.622556 0.400776 0.241092
140 1 0.68652 0.445232 0.0514973
383 1 0.757407 0.325539 0.0814193
413 1 0.69496 0.395714 0.131289
443 1 0.771656 0.484432 0.0677732
1043 1 0.746841 0.437099 0.310173
1042 2 0.730915 0.455722 0.330323
1010 1 0.688009 0.317374 0.308368
1009 2 0.694668 0.345366 0.295004
1011 1 0.721608 0.343021 0.278412
713 1 0.77811 0.414659 0.241766
746 1 0.779939 0.38619 0.161366
1044 1 0.700056 0.455304 0.322967
979 2 0.681234 0.262649 0.331028
480 1 0.889933 0.49149 0.129427
447 1 0.848071 0.433813 0.111156
445 2 0.831287 0.460365 0.115606
479 1 0.938117 0.479698 0.144369
1048 2 0.963258 0.452952 0.284527
386 1 0.814923 0.285996 0.185512
1018 2 0.968083 0.351207 0.267637
723 1 0.962716 0.419596 0.19563
721 2 0.987727 0.428922 0.178484
722 1 0.997518 0.404946 0.16016
1047 1 0.902457 0.426944 0.299213
1049 1 0.964912 0.482502 0.2731
1045 2 0.875224 0.420672 0.314229
449 1 0.907395 0.377095 0.0705716
1019 1 0.992022 0.360504 0.286265
1050 1 0.991065 0.438332 0.280105
150 1 0.946681 0.442961 0.0720839
984 1 0.805173 0.305965 0.293683
714 1 0.807271 0.37606 0.260307
113 1 0.813266 0.393759 0.017306
749 1 0.863681 0.397901 0.196291
446 1 0.813237 0.457249 0.14151
90 1 0.96548 0.290632 0.0350216
719 1 0.945714 0.299017 0.167019
149 1 0.983405 0.443891 0.0355526
89 1 0.939459 0.263317 0.0705291
750 1 0.877975 0.447408 0.201656
417 1 0.877608 0.308913 0.130979
717 1 0.885648 0.346667 0.233429
747 1 0.812373 0.354043 0.1369
720 1 0.942824 0.349136 0.179814
450 1 0.913015 0.373035 0.121913
385 2 0.813834 0.257158 0.198692
415 2 0.857058 0.304764 0.107168
715 2 0.864615 0.330843 0.251141
745 2 0.809918 0.375939 0.159726
88 2 0.936989 0.28553 0.048012
718 2 0.92804 0.325287 0.165009
148 2 0.963744 0.461678 0.0529773
448 2 0.909441 0.393302 0.0977678
748 2 0.887654 0.417272 0.203815
416 1 0.872273 0.292798 0.0820319
716 1 0.867289 0.299742 0.245473
146 1 0.866274 0.459272 0.0303756
1020 1 0.94581 0.337106 0.285289
1046 1 0.852886 0.413248 0.292959
983 1 0.803404 0.268586 0.329511
1233 1 0.0442353 0.118731 0.346255
1533 1 0.0168801 0.108018 0.470955
1206 1 0.0904365 0.0520095 0.426677
936 1 0.16523 0.0663336 0.353821
1236 1 0.101643 0.136074 0.415085
1536 1 0.135775 0.108876 0.511896
1566 1 0.121174 0.222239 0.593632
1201 2 0.0633955 0.00101835 0.349282
1501 2 0.078558 0.00405937 0.538589
1231 2 0.0505947 0.118018 0.377329
1531 2 0.028023 0.117076 0.499244
1204 2 0.096809 0.0269537 0.445065
1234 2 0.119188 0.14629 0.439464
1534 2 0.129353 0.122545 0.539796
1202 1 0.0571618 0.0190667 0.374618
1232 1 0.0260067 0.105349 0.392866
1532 1 0.0106428 0.103771 0.522209
1205 1 0.0893277 0.0337336 0.475141
1235 1 0.102074 0.166308 0.457153
1535 1 0.0979731 0.122828 0.544459
938 1 0.183713 0.147158 0.353447
1831 2 0.0568791 0.0975845 0.606913
1261 2 0.0420473 0.243306 0.388146
1561 2 0.0680292 0.211235 0.486424
1564 2 0.146017 0.208387 0.579581
1262 1 0.0708199 0.232447 0.380353
1562 1 0.0433936 0.193503 0.495653
1565 1 0.138309 0.178748 0.571295
1863 1 0.012031 0.218749 0.58024
1833 1 0.02982 0.108127 0.594139
1505 1 0.182959 0.0103927 0.554492
1503 1 0.0487873 0.0148141 0.536456
1804 2 0.125006 0.0288036 0.637924
1209 1 0.1699 0.0979632 0.454063
939 1 0.174266 0.16713 0.400308
1207 2 0.190635 0.0750717 0.446812
937 2 0.186815 0.17289 0.371744
1208 1 0.192147 0.0542257 0.47068
1238 1 0.198791 0.176694 0.475853
1538 1 0.197773 0.118775 0.577194
1506 1 0.144662 0.0173394 0.5203
1504 2 0.175879 0.0127829 0.523659
1806 1 0.153135 0.0433961 0.63944
905 1 0.149291 0.00244062 0.407013
1834 2 0.129309 0.141671 0.66448
1259 1 0.00225542 0.0295706 0.440845
1861 2 0.0418847 0.228208 0.585321
1563 1 0.0807156 0.225667 0.511669
1266 1 0.133351 0.245263 0.465784
1264 2 0.163962 0.247541 0.473805
1805 1 0.10222 0.0502718 0.632783
1502 1 0.0885147 0.00638418 0.568622
968 1 0.191125 0.239087 0.350121
1832 1 0.0562559 0.102189 0.638297
1836 1 0.155343 0.14292 0.646392
1803 1 0.0339717 0.0204972 0.653785
1801 2 0.0151906 0.000787377 0.637497
642 1 0.386478 0.127423 0.344948
909 1 0.271622 9.99487e-05 0.409096
1212 1 0.319457 0.0300525 0.470576
1508 1 0.260984 0.094563 0.51101
972 1 0.278304 0.224152 0.37859
1509 1 0.256036 0.0460475 0.528496
1239 1 0.210081 0.179573 0.526333
1539 1 0.214552 0.146115 0.617875
1512 1 0.352238 0.0571005 0.601822
942 1 0.245885 0.104551 0.430849
1242 1 0.352208 0.0992566 0.510572
1542 1 0.282397 0.19217 0.588038
1272 1 0.305458 0.218071 0.471842
911 1 0.384371 0.0203847 0.383238
1507 2 0.276743 0.068662 0.520354
1807 2 0.23792 0.0114456 0.602598
1237 2 0.210793 0.160961 0.500651
1537 2 0.214194 0.11744 0.604306
1210 2 0.343138 0.0388244 0.451372
1510 2 0.36652 0.0300061 0.610095
940 2 0.274991 0.112577 0.421105
1240 2 0.379529 0.113304 0.518496
1540 2 0.307879 0.173281 0.588687
1211 1 0.370909 0.0338941 0.465895
1511 1 0.383665 0.0346858 0.636376
1241 1 0.382767 0.140201 0.501986
1541 1 0.314574 0.163539 0.559246
1567 2 0.236692 0.240572 0.569954
970 2 0.291871 0.196953 0.369496
1270 2 0.318906 0.18935 0.472731
941 1 0.295987 0.0914152 0.431962
1568 1 0.205675 0.23423 0.572
1809 1 0.260858 0.0299611 0.614326
971 1 0.278084 0.172694 0.384592
1271 1 0.296856 0.167179 0.467374
1574 1 0.377056 0.22418 0.562001
1842 1 0.355801 0.14863 0.655074
1275 1 0.383502 0.241176 0.467356
910 2 0.381296 0.0216234 0.351686
975 1 0.354048 0.197749 0.358109
973 2 0.385267 0.203393 0.358281
974 1 0.392786 0.221993 0.333703
1810 2 0.299405 0.0907358 0.650419
1840 2 0.385105 0.158566 0.662076
1811 1 0.272249 0.0797747 0.662621
907 2 0.272998 0.00666108 0.378087
1875 1 0.373282 0.247101 0.637238
1812 1 0.293155 0.114538 0.630396
912 1 0.372932 0.0509742 0.343021
908 1 0.298392 0.0247513 0.372223
1839 1 0.245077 0.216615 0.660189
644 1 0.458312 0.15488 0.339694
917 1 0.582864 0.106607 0.399021
1220 1 0.59182 0.0209235 0.520022
945 1 0.416492 0.130224 0.445224
1217 1 0.539622 0.044376 0.437356
1844 1 0.486305 0.122411 0.659975
916 2 0.569112 0.0948835 0.372944
1218 1 0.539845 0.045806 0.489143
915 1 0.453293 0.0505282 0.468854
1245 1 0.495807 0.135856 0.460628
1545 1 0.424874 0.121738 0.562619
914 1 0.424151 0.0563767 0.426421
1575 1 0.413563 0.196073 0.585692
1518 1 0.51027 0.0332997 0.570617
1248 1 0.551504 0.166516 0.435469
1548 1 0.467722 0.208658 0.522458
1278 1 0.471439 0.223336 0.415938
913 2 0.440909 0.0357001 0.443689
943 2 0.404002 0.12817 0.416133
1243 2 0.481784 0.117381 0.482274
1543 2 0.445034 0.121307 0.587113
1877 1 0.502271 0.233958 0.654915
1216 2 0.556652 0.0380713 0.46337
1516 2 0.513702 0.0616935 0.556886
1246 2 0.579231 0.167018 0.45088
1546 2 0.499318 0.205804 0.522159
1846 2 0.547729 0.158384 0.60062
1244 1 0.4832 0.131432 0.510683
1544 1 0.46155 0.0942224 0.586739
1517 1 0.541431 0.074386 0.565632
1247 1 0.587155 0.197035 0.457416
1547 1 0.512172 0.231881 0.50946
944 1 0.404635 0.15672 0.402312
1878 1 0.491383 0.196828 0.620465
1573 2 0.404951 0.209532 0.558284
1276 2 0.488056 0.201476 0.400048
1876 2 0.479049 0.219696 0.638671
1848 1 0.577449 0.168589 0.596248
1277 1 0.509416 0.215844 0.381506
1816 2 0.462896 0.035863 0.637257
1817 1 0.462429 0.00414857 0.637955
1849 2 0.594329 0.24886 0.606136
1818 1 0.492445 0.0461235 0.642556
918 1 0.570986 0.116189 0.349512
1847 1 0.529185 0.169591 0.577446
1188 1 0.573412 0.0163141 0.381907
976 2 0.578603 0.241307 0.368737
2090 1 0.585294 0.0834098 0.653526
615 1 0.50752 0.0666836 0.355345
2089 2 0.577043 0.0583738 0.635873
2091 1 0.581955 0.0649613 0.60523
1841 1 0.406176 0.142458 0.644667
613 2 0.48368 0.0558405 0.33744
1852 2 0.764471 0.16087 0.654607
1493 1 0.709796 0.0436013 0.49616
1492 2 0.715596 0.0168022 0.512119
921 1 0.656553 0.11478 0.468129
1790 1 0.672031 0.0187052 0.598118
951 1 0.630479 0.192686 0.384866
1850 1 0.610537 0.236272 0.581942
1521 1 0.658381 0.146837 0.598036
1251 1 0.736734 0.163676 0.455458
1551 1 0.64382 0.1559 0.519912
924 1 0.701919 0.0747629 0.410033
1224 1 0.726662 0.0974101 0.556071
1524 1 0.769964 0.0875679 0.620948
919 2 0.659389 0.0849372 0.457744
1219 2 0.607773 0.0232927 0.547343
1519 2 0.651806 0.153639 0.628319
949 2 0.656222 0.175585 0.3777
1249 2 0.709409 0.17759 0.463595
1549 2 0.627681 0.179657 0.533389
922 2 0.7199 0.0632884 0.386549
1222 2 0.708054 0.121272 0.546539
1522 2 0.78189 0.0634037 0.604204
952 2 0.758463 0.198859 0.352832
1552 2 0.789106 0.19286 0.552922
920 1 0.632181 0.0693884 0.462691
1520 1 0.669748 0.178018 0.637817
950 1 0.675217 0.173936 0.403057
1250 1 0.715006 0.207558 0.472377
1550 1 0.630624 0.20582 0.515687
923 1 0.704302 0.0399872 0.371706
1223 1 0.725511 0.142749 0.531031
953 1 0.759337 0.221556 0.374981
1553 1 0.787726 0.186618 0.583997
1227 1 0.785401 0.0583768 0.513283
954 1 0.732919 0.180606 0.357398
1582 2 0.706379 0.248268 0.534389
926 1 0.789603 0.130298 0.348623
927 1 0.794821 0.0856049 0.3743
1789 2 0.690153 0.0242559 0.62356
1281 1 0.652146 0.248263 0.471282
1496 1 0.77948 0.0190338 0.40291
1791 1 0.718036 0.0362092 0.614278
1583 1 0.728567 0.228085 0.544724
1190 1 0.630063 0.00213737 0.334456
654 1 0.680297 0.0988684 0.336455
1497 1 0.813539 0.0395073 0.436148
1859 1 0.955622 0.113443 0.646906
1530 1 0.987929 0.0165979 0.569306
1495 2 0.809994 0.0197724 0.411562
1499 1 0.898035 0.0188111 0.513848
1229 1 0.88189 0.0341138 0.380132
1554 1 0.812193 0.213901 0.547378
1226 1 0.833584 0.0416999 0.504102
1887 1 0.842515 0.229463 0.644146
1526 1 0.891354 0.0210033 0.595183
1529 1 0.962054 0.036439 0.529046
1523 1 0.813527 0.0656563 0.603452
1856 1 0.876748 0.164582 0.629531
1254 1 0.80433 0.132495 0.472497
1252 2 0.804329 0.156467 0.451717
1253 1 0.828524 0.175978 0.45808
1257 1 0.885334 0.140244 0.439566
1557 1 0.857485 0.0981893 0.56719
1587 1 0.913204 0.207315 0.481392
1260 1 0.95972 0.056969 0.429707
1560 1 0.929706 0.161363 0.543348
1290 1 0.954062 0.167021 0.430823
925 2 0.81031 0.108472 0.358689
1225 2 0.813783 0.0663581 0.501568
1255 2 0.905342 0.116726 0.446852
1555 2 0.863798 0.129081 0.57071
1855 2 0.87102 0.16868 0.660466
1228 2 0.903432 0.0551209 0.370072
1528 2 0.985182 0.0417104 0.550114
1828 2 0.925826 0.044824 0.648866
1258 2 0.991295 0.0581653 0.432555
1558 2 0.958926 0.169749 0.552424
1858 2 0.970658 0.141023 0.642457
1256 1 0.897308 0.104324 0.474926
1556 1 0.850773 0.14533 0.546776
1829 1 0.952793 0.0295833 0.642009
1559 1 0.976576 0.17598 0.526808
1230 1 0.90173 0.0813459 0.387845
987 1 0.848441 0.201359 0.379649
1860 1 0.96201 0.153399 0.614554
985 2 0.876032 0.185764 0.378231
1585 2 0.88404 0.207939 0.493867
1288 2 0.966571 0.194733 0.439882
986 1 0.872199 0.158977 0.361669
1289 1 0.984774 0.206238 0.416584
1498 2 0.917864 0.0216629 0.489247
1525 2 0.874195 0.0216525 0.568506
990 1 0.915943 0.244563 0.366989
1586 1 0.875091 0.238046 0.498334
1200 1 0.945198 0.00221819 0.347943
1868 1 0.177691 0.322124 0.60664
1924 2 0.167431 0.463718 0.665109
991 2 0.0337404 0.340246 0.337062
2163 1 0.0593298 0.324686 0.664435
1325 1 0.103402 0.461525 0.442874
1893 1 0.136481 0.361358 0.655209
1862 1 0.0427254 0.259846 0.587513
2221 2 0.0679571 0.48391 0.647735
996 1 0.147079 0.315968 0.385029
1263 1 0.0441574 0.260914 0.414453
1029 1 0.173333 0.491107 0.40776
1293 1 0.0295883 0.346733 0.458226
1323 1 0.0325025 0.416013 0.405237
1623 1 0.0256275 0.450322 0.504656
1296 1 0.117987 0.354455 0.500829
1596 1 0.0777555 0.305504 0.544225
1026 1 0.10204 0.407007 0.375073
1291 2 0.0412011 0.31726 0.459953
1591 2 0.0338735 0.353201 0.568285
1891 2 0.111981 0.37623 0.641603
1321 2 0.0516683 0.44124 0.403572
1621 2 0.0515224 0.433907 0.512811
994 2 0.119697 0.304622 0.396344
1294 2 0.123399 0.375434 0.477654
1594 2 0.108324 0.297666 0.540965
1024 2 0.129604 0.405415 0.359447
1324 2 0.121706 0.484377 0.455093
1624 2 0.131757 0.467759 0.554603
1292 1 0.0269332 0.301641 0.483596
1592 1 0.0539694 0.364421 0.59012
1322 1 0.0353283 0.466247 0.392887
1622 1 0.0428919 0.405961 0.525102
1265 1 0.171787 0.278111 0.477088
1295 1 0.107257 0.402102 0.483549
1595 1 0.114826 0.272601 0.559296
1625 1 0.105962 0.470645 0.53636
995 1 0.109438 0.323273 0.419869
1867 2 0.18388 0.311148 0.635756
1892 1 0.108468 0.404936 0.654647
1926 1 0.178003 0.49355 0.662916
1899 1 0.195836 0.403872 0.55047
1599 1 0.198751 0.331355 0.526106
1897 2 0.183802 0.385245 0.573159
1298 1 0.177156 0.392881 0.398353
1628 1 0.185052 0.461635 0.493903
2222 1 0.0992494 0.487872 0.644328
1898 1 0.164319 0.40223 0.591556
1626 1 0.136641 0.49485 0.570373
993 1 0.04022 0.338485 0.368069
1949 1 0.0048872 0.466578 0.606697
1593 1 0.00460879 0.351991 0.580477
1027 2 0.193412 0.498584 0.384363
1865 1 0.133926 0.273503 0.657649
1025 1 0.127109 0.384517 0.335707
967 2 0.202962 0.266154 0.338555
1329 1 0.278159 0.43178 0.395542
2199 1 0.222546 0.376764 0.651805
1631 1 0.355413 0.450377 0.545273
1028 1 0.201547 0.472281 0.3686
1632 1 0.340895 0.453804 0.495659
1327 2 0.295306 0.448805 0.4161
1872 1 0.281875 0.318159 0.665438
1269 1 0.233369 0.27916 0.40421
1569 1 0.24112 0.265758 0.551177
1572 1 0.309601 0.280338 0.548347
1929 1 0.261586 0.452725 0.559717
1928 1 0.223897 0.453961 0.595242
1001 1 0.349853 0.325207 0.380705
1927 2 0.253095 0.464101 0.588089
1299 1 0.20689 0.365797 0.431007
1629 1 0.217805 0.42537 0.476696
1302 1 0.315613 0.352264 0.456621
1602 1 0.282862 0.377012 0.599019
1332 1 0.361808 0.44639 0.436135
1267 2 0.2548 0.26844 0.425002
1297 2 0.205827 0.391031 0.411808
1597 2 0.220946 0.316773 0.50875
1627 2 0.214954 0.451097 0.49504
1570 2 0.339124 0.275294 0.537886
1870 2 0.290285 0.292372 0.648981
1000 2 0.341795 0.313671 0.40914
1300 2 0.296106 0.36754 0.476436
1600 2 0.298783 0.363979 0.57487
1330 2 0.390972 0.451659 0.447457
1630 2 0.334235 0.440645 0.523748
1268 1 0.24558 0.275821 0.454447
1598 1 0.247897 0.333475 0.509854
1571 1 0.350221 0.301765 0.524371
1301 1 0.30683 0.397016 0.4812
1601 1 0.309902 0.386886 0.555945
1328 1 0.277385 0.456258 0.441195
1873 2 0.39159 0.27272 0.641109
1904 1 0.392769 0.403702 0.60866
1869 1 0.211538 0.295607 0.63554
1871 1 0.31591 0.298904 0.631454
1002 1 0.333382 0.283223 0.406201
1900 2 0.355134 0.397148 0.660514
1902 1 0.324119 0.391 0.663114
1368 1 0.478362 0.478887 0.531104
1665 1 0.494486 0.494685 0.640545
977 1 0.572987 0.263194 0.391007
1274 1 0.4245 0.258171 0.494083
1881 1 0.594875 0.334451 0.651632
1931 1 0.41318 0.49986 0.654216
1273 2 0.41135 0.256231 0.465276
1034 1 0.415543 0.420783 0.345758
1874 1 0.418201 0.264503 0.656302
1968 1 0.576769 0.472189 0.650587
978 1 0.586968 0.255638 0.341697
1370 1 0.583739 0.471069 0.400037
1008 1 0.558494 0.343263 0.374813
1035 1 0.426052 0.371995 0.35966
1605 1 0.400006 0.331489 0.451122
1908 1 0.502347 0.336466 0.640437
1033 2 0.40342 0.39417 0.358057
1935 1 0.527793 0.415669 0.62733
1578 1 0.416253 0.293877 0.5733