
variable systemNsize equal 10
variable rndSeed equal 1234
variable Nrun equal 500000
variable Nstab equal 2000
variable NdumpStats equal 10
variable NdumpFrames equal 1000
variable Text equal 298.0
variable Pext equal 1.0

units real
    # g/mol, A, fs, Kcal/mol, K, atm, g/cm^3
atom_style full
read_data SPCE.data
  orthogonal box = (0 0 0) to (3.1 3.1 3.1)
  1 by 2 by 3 MPI processor grid
  reading atoms ...
  3 atoms
  scanning bonds ...
  2 = max bonds/atom
  scanning angles ...
  1 = max angles/atom
  reading bonds ...
  2 bonds
  reading angles ...
  1 angles
  2 = max # of 1-2 neighbors
  1 = max # of 1-3 neighbors
  1 = max # of 1-4 neighbors
  2 = max # of special neighbors
  special bonds CPU = 0.000725985 secs
  read_data CPU = 0.00341511 secs

replicate ${systemNsize} ${systemNsize} ${systemNsize}
replicate 10 ${systemNsize} ${systemNsize}
replicate 10 10 ${systemNsize}
replicate 10 10 10
  orthogonal box = (0 0 0) to (31 31 31)
  1 by 2 by 3 MPI processor grid
  3000 atoms
  2000 bonds
  1000 angles
  2 = max # of 1-2 neighbors
  1 = max # of 1-3 neighbors
  1 = max # of 1-4 neighbors
  2 = max # of special neighbors
  special bonds CPU = 0.000517845 secs
  replicate CPU = 0.00249815 secs

include SPCE.long
# Original model from Berendsen et al, J Phys Chem 91:6269 (1987)
# Charges and geometry are specified in the ".data" file.

mass 1 1.00794 # H
mass 2 15.9994 # O

pair_style lj/cut/coul/dsf 0.05 10.0

#pair_style lj/cut/coul/long 10.0
    # LJ_Rcut (Coul_Rcut)
pair_modify tail yes
    # assumtions and approximations:
    # 1) 3d bulk homogeneous liquid (+)
    # 2) RDF is unity beyond the cutoff
    # 3) It's computed at the begining of the run
    # 4) atoms don't feel additional energy but it's added to the PE etc
#kspace_style pppm 1.0e-5
    # accuracy - desired relative error in forces

pair_coeff 1 1 0.00000 0.000
pair_coeff 1 2 0.00000 0.000
    # TODO - I would put here the sizes of H and O atoms instead of one big LJ repulsion from the O atom. What "e" to choose is still a question.
pair_coeff 2 2 0.65 3.166
    # epsilon, sigma, [LJ_Rcut, [Coul_Rcut]]
    # distance between H and O is 1.0 so 3.166 > 1.0 accounts for the size of a molecule as a whole
    # I guess the major part in forces inside a molecule are indeed due to OH and HOH (angle) bondings, so computing LJ and Coul for them would be practically a waste of time so it may be ommitted. So I see only an optimizational reason to set LJ coefs to 0 for H atoms inside a molecule. However here (as far as I understand) we set all LJ coefs to 0. I understand LJ is a short-rage potential so its contribution can be neglegible compared to Coul, but it's not obvious for me why it actually is.
    # TODO - there might be a more correct way to ommit unnecessary interaction by using special_bond

bond_style harmonic
    # E = k(r-r0)^2
bond_coeff 1 0.0 1.0
    # bondID k r0
    # ? - how does k=0 make sense?
    # Is this to formaly bond atoms but actual bonding is done by rattle?

angle_style harmonic
angle_coeff 1 0.0 109.47
    # ? - same, how does k=0 make sense?


velocity all create ${Text} ${rndSeed}
velocity all create 298 ${rndSeed}
velocity all create 298 1234

fix removeMomentum all momentum 1 linear 1 1 1 angular
    # 1 - adjust the momentum every 1 timesteps
    # linear 1/0 1/0 1/0 - zero the P_x/y/z
    # angular - zero angular momentum (TODO - add "angular" here?)
    # scale - scale velocities after the adjustment so T is conserved (TODO - add "scale" here?)

fix stab_iso all npt temp ${Text} ${Text} $(50.0*dt) iso ${Pext} ${Pext} $(500.0*dt)
fix stab_iso all npt temp 298 ${Text} $(50.0*dt) iso ${Pext} ${Pext} $(500.0*dt)
fix stab_iso all npt temp 298 298 $(50.0*dt) iso ${Pext} ${Pext} $(500.0*dt)
fix stab_iso all npt temp 298 298 50 iso ${Pext} ${Pext} $(500.0*dt)
fix stab_iso all npt temp 298 298 50 iso 1 ${Pext} $(500.0*dt)
fix stab_iso all npt temp 298 298 50 iso 1 1 $(500.0*dt)
fix stab_iso all npt temp 298 298 50 iso 1 1 500
    # Tstart,Tstop = external temperature at start/end of run
    # Tdamp = temperature damping parameter (time units)
    # temp - for thermostat, iso - for barostat

fix stab_constrain all rattle 1.0e-5 100 0 b 1 a 1
  0 = # of size 2 clusters
  0 = # of size 3 clusters
  0 = # of size 4 clusters
  1000 = # of frozen angles
  find clusters CPU = 0.000338078 secs
    # fix ID group-ID shake tol iter N constraint1 value1 ...
    # iter - max # of iterations in each SHAKE solution
    # print SHAKE statistics every N many timesteps (0 = never)
    # b - bonds, a - angles
    # b 1 - bonds of type 1
    # a 1 - bonds of type 1
    # shake adds forces to make the displacement satisfy constraints - e.g. |r_ij|=d
    # rattle does the same and additionally it refines velocities - e.g. (|r|)'_t = 0.
    # *should be defined after other force- and v- modifiers since it doesn't account for them

thermo_style custom step density press temp
thermo ${NdumpStats}
thermo 10
run ${Nstab}
run 2000
Neighbor list info ...
  update every 1 steps, delay 10 steps, check yes
  max neighbors/atom: 2000, page size: 100000
  master list distance cutoff = 12
  ghost atom cutoff = 12
  binsize = 6, bins = 6 6 6
  1 neighbor lists, perpetual/occasional/extra = 1 0 0
  (1) pair lj/cut/coul/dsf, perpetual
      attributes: half, newton on
      pair build: half/bin/newton
      stencil: half/bin/3d/newton
      bin: standard
Per MPI rank memory allocation (min/avg/max) = 8.713 | 8.868 | 9.125 Mbytes
Step Density Press Temp 
       0    1.0041648    46677.657    296.38482 
      10   0.99755294    38125.685    398.63428 
      20   0.98115289    20489.235     891.5731 
      30   0.96423678    13799.399    1052.9469 
      40   0.95134853    13394.256    879.47365 
      50   0.94070438    11796.502    786.83906 
      60   0.93078288    9883.0708     728.8171 
      70   0.92136269    8146.5847    681.65722 
      80   0.91269361    6688.0689     643.4902 
      90   0.90501443    5195.7018    624.25947 
     100   0.89842524    4251.5456    588.26906 
     110   0.89280977    3398.8298    547.51858 
     120   0.88804248    2122.9399    527.69985 
     130   0.88409846    1318.4592    502.42575 
     140   0.88089281    756.62925    478.61186 
     150   0.87832309    117.63992    458.50841 
     160   0.87635025   -550.50017    444.10775 
     170   0.87497605   -1195.2778    439.35107 
     180   0.87420035    -1334.463    419.90253 
     190   0.87393526   -1339.1047    392.68042 
     200   0.87409108   -1739.1245    387.22328 
     210   0.87468074   -2010.6585    377.12224 
     220   0.87570411   -2118.2849    361.74524 
     230   0.87712392    -2200.457    352.20957 
     240     0.878895   -2168.7418     345.1337 
     250   0.88096239   -2277.0906    344.45676 
     260   0.88329893   -2170.4217    330.65929 
     270   0.88583954   -2045.3411    318.55643 
     280   0.88851345   -2021.1283    316.94374 
     290   0.89128136   -2017.1242    314.87692 
     300   0.89411936   -2027.8931    311.85898 
     310   0.89700809   -1956.3045    313.77442 
     320   0.89990252   -1530.0653    303.33311 
     330     0.902693   -1162.0686    296.85149 
     340   0.90529514   -939.77592    294.71876 
     350   0.90767646   -668.58082    290.76092 
     360   0.90981514   -620.97831    288.57152 
     370   0.91174765   -844.22641    291.68412 
     380   0.91356692   -983.73598    290.72252 
     390   0.91533787   -1082.5523    294.99258 
     400   0.91709434   -949.06587    288.84282 
     410   0.91881249    -722.1274    280.70605 
     420   0.92045013    -746.2013    285.64267 
     430   0.92202464   -837.68717    293.06239 
     440   0.92357263   -879.75131     300.7934 
     450   0.92510978   -718.79869    297.36873 
     460   0.92660714   -661.02638    296.78513 
     470   0.92805237    -535.0727    294.91281 
     480   0.92942377   -388.25619       297.08 
     490   0.93069515   -235.84666    296.27592 
     500   0.93184765   -227.90298    300.10594 
     510   0.93289649   -306.33598    301.65671 
     520   0.93388101   -395.12045    300.11541 
     530   0.93483463   -441.44797    300.58651 
     540   0.93577852   -481.18137    299.16434 
     550   0.93672463   -452.56762    298.77091 
     560   0.93766625   -339.18414    292.89172 
     570   0.93858551   -471.26394    297.06493 
     580   0.93951127    -448.7969    294.71841 
     590   0.94044293   -364.81278    295.03647 
     600    0.9413522   -113.21852    289.49712 
     610   0.94218023    62.533845    291.64573 
     620   0.94288582    209.37968    295.40695 
     630   0.94344751    353.05175    294.09564 
     640   0.94384538    426.78611    293.71483 
     650   0.94408354    291.92322    297.71819 
     660   0.94421196    186.33373    296.36393 
     670   0.94427481    102.95948    297.89658 
     680   0.94430075    69.166035    299.01601 
     690   0.94430398    91.038009    295.84365 
     700   0.94428635   -7.3580458    297.55834 
     710   0.94426975   -14.816929    296.20686 
     720    0.9442621   -94.856373    302.69125 
     730   0.94428251   -229.55474    310.30943 
     740    0.9443556   -67.979017    304.28514 
     750   0.94444074    163.04677    295.67869 
     760   0.94447343    328.01865    291.72177 
     770   0.94441651    268.59604    295.57916 
     780    0.9442887    215.75061    293.97734 
     790    0.9441182   -4.5398293    302.24618 
     800   0.94396225   -164.59856    311.63842 
     810   0.94385717    84.011991    296.85749 
     820   0.94374963    37.681731    298.82272 
     830   0.94363867   -25.051541    301.79134 
     840   0.94354429   -74.044945     299.9886 
     850   0.94348379   -268.22205    303.02077 
     860    0.9434972   -209.32907    295.01847 
     870   0.94356848   -111.57292    296.25699 
     880   0.94366346     8.399309     294.5575 
     890    0.9437515    3.1109846    294.96288 
     900   0.94383357    -106.7422    299.92102 
     910   0.94393677   -163.93616    300.88427 
     920   0.94407322   -96.104834    297.51728 
     930   0.94422603   -43.281341    296.05043 
     940   0.94438156   -111.78084    296.89359 
     950   0.94455529   -123.98463    293.29769 
     960   0.94475451   -209.76918    296.06813 
     970   0.94499695   -228.08217    294.59641 
     980    0.9452844   -194.85317    295.09016 
     990   0.94560646    -215.6241    292.78932 
    1000   0.94597159   -419.91975    299.45027 
    1010   0.94641819   -302.62599    298.02155 
    1020   0.94691942   -180.72487    299.27869 
    1030   0.94743076    56.460203    295.61626 
    1040   0.94789177    170.17268    292.30601 
    1050    0.9482822   -152.82467    303.50414 
    1060   0.94868184   -333.16903    309.06079 
    1070   0.94913984    -201.4145    304.88285 
    1080   0.94962173    2.8959516    300.49606 
    1090   0.95006885    143.36244    298.60333 
    1100   0.95044675    128.26085    297.81137 
    1110   0.95076184    78.778533    298.08738 
    1120   0.95103175    75.478925    294.46185 
    1130   0.95126521   -13.435349    298.42055 
    1140   0.95148206    37.081711     297.5064 
    1150    0.9516745    54.204547    296.37211 
    1160   0.95183942   -6.6158936    299.27127 
    1170   0.95199019    80.228939      292.437 
    1180   0.95211535   -4.1125611    295.10502 
    1190   0.95223012   -41.751303    297.01718 
    1200   0.95234732   -17.825646    296.43704 
    1210    0.9524597    118.17457    291.11322 
    1220   0.95253339    201.79805    290.42422 
    1230   0.95255136    26.257307    299.03918 
    1240   0.95255896   -106.32766    299.13614 
    1250   0.95259648   -159.80924    300.00793 
    1260   0.95267579   -144.67764    303.61955 
    1270   0.95278728    22.601804    302.25263 
    1280   0.95288722    151.69388    300.23633 
    1290   0.95294041    177.49389    302.47767 
    1300   0.95293821     207.0781    301.36326 
    1310   0.95288119    108.05338    301.61579 
    1320   0.95279065    160.65091    300.83576 
    1330   0.95266146    143.60958    306.15741 
    1340   0.95249403    208.92435     299.6813 
    1350   0.95228218    133.38059    294.58161 
    1360   0.95204493    52.133351    297.42022 
    1370    0.9517965    285.10947    289.96387 
    1380   0.95148742    268.61056     288.6166 
    1390   0.95112374   -26.863025    293.62368 
    1400   0.95078594   -290.27929    297.74727 
    1410   0.95054395    -350.0692    297.66818 
    1420    0.9504128   -266.12736    294.13906 
    1430    0.9503642   -141.19367    293.77905 
    1440   0.95035837   -41.791833    293.94235 
    1450   0.95036742   -10.028513    291.68986 
    1460   0.95038366   -126.72821    296.57666 
    1470   0.95043554   -276.49595    307.24433 
    1480   0.95055691    -234.8282    310.62677 
    1490   0.95074288   -216.83154    312.41383 
    1500   0.95097652    42.454887      301.749 
    1510   0.95118908    291.52912     294.9378 
    1520   0.95131198    313.32059     295.3825 
    1530   0.95134317    135.70589    296.36407 
    1540   0.95133496   -121.69919    300.91347 
    1550   0.95135356   -115.22281    298.99026 
    1560   0.95140261    30.783155     291.2127 
    1570   0.95144454    14.823797    294.24069 
    1580   0.95147941   -6.0673446    296.39202 
    1590   0.95150878    156.09939    290.96661 
    1600   0.95149514    188.20143    293.57947 
    1610   0.95142826    137.76673    295.17226 
    1620   0.95132542     66.94544    296.53012 
    1630   0.95120607    48.089007    297.85202 
    1640   0.95108335   -123.58881    298.94482 
    1650   0.95100281   -348.86085     301.3682 
    1660   0.95102534   -514.76018    303.50706 
    1670   0.95119182   -502.01088     304.5983 
    1680   0.95149099   -266.23726    300.35555 
    1690   0.95185506   -12.373986     298.6967 
    1700   0.95220809    223.57261    295.25782 
    1710   0.95248907    190.72632    299.72373 
    1720   0.95270638    6.3438411    310.42332 
    1730   0.95289991    248.00743    301.80591 
    1740   0.95302051    389.49437    297.27383 
    1750   0.95302734     353.4931    296.97973 
    1760   0.95293291    236.26325    299.97219 
    1770   0.95276929     211.8976    294.85327 
    1780   0.95255743   -39.472052    298.20724 
    1790   0.95235971   -148.61926    295.66487 
    1800   0.95221228   -131.16355    290.98153 
    1810   0.95210955   -137.24755    293.69045 
    1820   0.95204714   -30.580792    289.49217 
    1830   0.95200347   -126.90774    291.94707 
    1840   0.95199948   -315.52714    296.14849 
    1850   0.95208674   -485.57669    300.84468 
    1860   0.95230483   -375.41606    294.68928 
    1870   0.95263159    -381.0161    297.00982 
    1880   0.95305921   -427.85055    304.45411 
    1890   0.95359089    -230.6099    299.15465 
    1900   0.95417367   -25.146066    294.98408 
    1910   0.95474665    138.90232    289.20748 
    1920   0.95526306    242.90473    293.43203 
    1930   0.95568699    427.28704    298.92751 
    1940   0.95597353    543.47486    301.32142 
    1950   0.95609372    593.00124    299.10217 
    1960   0.95604335    416.52823    303.19677 
    1970   0.95587045     293.4155    298.65322 
    1980   0.95562671    -36.20831    302.44216 
    1990   0.95539878   -285.31362    308.19658 
    2000   0.95525604   -309.68062    307.31098 
Loop time of 11.3887 on 6 procs for 2000 steps with 3000 atoms

Performance: 15.173 ns/day, 1.582 hours/ns, 175.612 timesteps/s
99.8% CPU use with 6 MPI tasks x 1 OpenMP threads

MPI task timing breakdown:
Section |  min time  |  avg time  |  max time  |%varavg| %total
---------------------------------------------------------------
Pair    | 8.4996     | 9.2509     | 9.7755     |  16.5 | 81.23
Bond    | 0.0010056  | 0.0011544  | 0.0014327  |   0.4 |  0.01
Neigh   | 0.48967    | 0.49019    | 0.49078    |   0.1 |  4.30
Comm    | 0.46193    | 0.98528    | 1.7378     |  50.7 |  8.65
Output  | 0.0042081  | 0.0045282  | 0.0059001  |   0.9 |  0.04
Modify  | 0.62972    | 0.63225    | 0.63449    |   0.2 |  5.55
Other   |            | 0.02441    |            |       |  0.21

Nlocal:    500 ave 520 max 477 min
Histogram: 1 0 0 1 1 0 1 1 0 1
Nghost:    6807.17 ave 6834 max 6788 min
Histogram: 1 2 0 0 0 1 0 1 0 1
Neighs:    173130 ave 181229 max 168171 min
Histogram: 2 1 0 1 0 0 0 1 0 1

Total # of neighbors = 1038777
Ave neighs/atom = 346.259
Ave special neighs/atom = 2
Neighbor list builds = 109
Dangerous builds = 5
unfix stab_iso
unfix stab_constrain

reset_timestep 0
fix iso all npt temp ${Text} ${Text} $(100.0*dt) iso ${Pext} ${Pext} $(1000.0*dt)
fix iso all npt temp 298 ${Text} $(100.0*dt) iso ${Pext} ${Pext} $(1000.0*dt)
fix iso all npt temp 298 298 $(100.0*dt) iso ${Pext} ${Pext} $(1000.0*dt)
fix iso all npt temp 298 298 100 iso ${Pext} ${Pext} $(1000.0*dt)
fix iso all npt temp 298 298 100 iso 1 ${Pext} $(1000.0*dt)
fix iso all npt temp 298 298 100 iso 1 1 $(1000.0*dt)
fix iso all npt temp 298 298 100 iso 1 1 1000
#fix iso all nvt temp ${Text} ${Text} $(100.0*dt)
fix constrain all rattle 1.0e-5 100 0 b 1 a 1
  0 = # of size 2 clusters
  0 = # of size 3 clusters
  0 = # of size 4 clusters
  1000 = # of frozen angles
  find clusters CPU = 0.000245094 secs

thermo_style custom step density etotal press temp
thermo_modify flush yes
    # insures the output is dumped in the file and not buffered or something
thermo ${NdumpStats}
thermo 10
dump trj all atom ${NdumpFrames} wat.lammpstrj
dump trj all atom 1000 wat.lammpstrj

run ${Nrun}
run 500000
Per MPI rank memory allocation (min/avg/max) = 9.733 | 10.02 | 10.17 Mbytes
Step Density TotEng Press Temp 
       0   0.95525604   -10385.724   -286.68231    307.31098 
      10   0.95526503   -10385.903   -163.17002    299.61513 
      20   0.95528747   -10386.669   -206.80587    300.51173 
      30   0.95532456   -10387.565   -189.97204    300.27942 
      40   0.95537483   -10388.812   -14.342197     296.8379 
      50   0.95542638   -10389.996    155.11074    292.74929 
      60   0.95546919   -10390.619   -11.741883    297.77518 
      70    0.9555118   -10391.378   -105.39235    301.16333 
      80   0.95556122   -10392.243   -33.456204    297.76279 
      90   0.95561461   -10393.661   -156.99442    302.30382 
     100   0.95567933   -10395.595   -278.03175    303.81145 
     110   0.95576428   -10398.407   -311.25033    302.82769 
     120   0.95587227   -10402.634    -331.0556    307.79348 
     130   0.95600281   -10408.328   -115.91873    299.21049 
     140   0.95614479   -10415.192    -180.5147    299.77611 
     150   0.95629996   -10423.252    -259.4931    300.80985 
     160   0.95647441   -10432.514    -287.9369    300.32783 
     170   0.95666924   -10443.415   -203.85599    303.05993 
     180   0.95687745   -10454.829     109.0583      297.131 
     190   0.95707937   -10466.315    227.90703    297.66972 
     200   0.95726349   -10476.693    461.75792    292.35371 
     210   0.95741573   -10485.316    524.06311    287.70477 
     220   0.95753071   -10491.912    382.31979    289.37619 
     230   0.95761706     -10496.6    305.17916    287.51087 
     240   0.95768119   -10499.387     215.2314    289.86633 
     250   0.95772953   -10501.127    104.91074    294.41769 
     260   0.95776961   -10502.249    51.799219    293.95061 
     270   0.95780572   -10502.671    34.307406    292.28158 
     280    0.9578388   -10502.444    95.832194    291.70171 
     290   0.95786477    -10501.64    187.49603    291.63346 
     300   0.95787764   -10499.891    198.77565    288.43996 
     310   0.95787751   -10497.362   -1.5582837    293.30435 
     320   0.95787621   -10494.382   -32.718713    291.95782 
     330   0.95787738   -10490.956   -38.841992    292.20425 
     340   0.95788118   -10487.196   -27.608311    295.01082 
     350   0.95788699   -10483.128    12.141408    296.79019 
     360   0.95789203   -10479.015    54.363762    295.67963 
     370   0.95789343   -10474.925    82.376892    296.21828 
     380   0.95788865   -10470.878    128.75189    298.28841 
     390   0.95787329   -10466.842    254.50812     295.4048 
     400   0.95784076   -10462.984    147.47863    299.09017 
     410   0.95779662   -10459.176    71.761767    300.59826 
     420   0.95774635   -10455.915    86.516616    301.22734 
     430   0.95768915   -10453.133    155.46741    299.05237 
     440   0.95762074   -10450.473    213.20605    295.27579 
     450   0.95753739   -10447.823    153.18843    297.33113 
     460   0.95744214   -10444.933    81.445087    298.13851 
     470   0.95734062   -10442.274   -4.5028558    301.17736 
     480    0.9572379   -10439.806    25.949981    301.59838 
     490   0.95713287   -10438.025    68.820967    298.07403 
     500   0.95702311   -10436.252    12.290058    297.97439 
     510   0.95691246   -10434.465   -94.986887    299.32827 
     520   0.95680627   -10432.804    61.576123    298.74013 
     530    0.9566941   -10431.204     344.5563    295.54545 
     540   0.95655764   -10429.501    358.13975    297.05004 
     550   0.95639501   -10427.553    172.27387    299.56293 
     560   0.95621776   -10425.301    159.54348    293.76469 
     570   0.95602796   -10422.459    192.48606    292.23001 
     580   0.95582302   -10418.661    184.20333    293.22539 
     590   0.95560377    -10413.51    124.80491    296.52572 
     600   0.95537467   -10407.304   -16.408118    301.53676 
     610   0.95514587   -10400.177    -237.8787    308.23347 
     620   0.95493251   -10392.743   -362.48958     308.5741 
     630   0.95474412   -10384.979   -375.55933    305.80555 
     640   0.95458252   -10376.836   -404.50123    304.16398 
     650   0.95445036   -10367.776   -488.09652    304.57173 
     660   0.95435339   -10358.156   -561.81323    308.18962 
     670    0.9542963   -10348.339   -499.81906    308.94136 
     680    0.9542749   -10338.898   -269.21284    303.97606 
     690   0.95427382    -10329.69   -49.739155    299.15246 
     700   0.95427875   -10320.674   -163.47672    308.70343 
     710   0.95429439    -10312.31   -168.23508    312.18329 
     720    0.9543206   -10305.571    144.06232    307.89672 
     730   0.95433666   -10300.202    479.30028    303.49248 
     740   0.95431984   -10296.068    480.49232    306.79816 
     750   0.95426705   -10292.889    436.75486    308.93756 
     760    0.9541814   -10291.021    402.49659    309.46997 
     770   0.95406633   -10290.705     245.6184    312.74086 
     780   0.95393098   -10292.038    259.89839    311.02541 
     790   0.95377564    -10295.17    236.93592    311.63612 
     800   0.95360149   -10300.062    211.69289    308.71154 
     810   0.95340977   -10306.177    295.82918    304.29054 
     820   0.95319478   -10313.411    365.51713    306.18652 
     830   0.95295094   -10321.588    406.98194    303.67239 
     840   0.95267564   -10330.223    355.05156    301.02766 
     850   0.95237252   -10338.706    203.51021    300.35287 
     860   0.95205196   -10346.951    1.0729776    302.06828 
     870   0.95172737   -10354.713   -93.485551    302.19836 
     880   0.95140662   -10361.934   -132.94701    301.92131 
     890   0.95109201   -10368.125   -59.579734    296.99043 
     900   0.95078035   -10373.245   -166.43106    298.97071 
     910   0.95047883     -10377.3   -410.96062     301.3973 
     920   0.95020501   -10380.659   -636.83703    298.94699 
     930   0.94997634   -10383.443   -857.14065    297.30208 
     940   0.94980931   -10385.467   -1047.5603     296.5747 
     950   0.94971778   -10387.237     -1164.59    300.96139 
     960   0.94970947   -10388.837   -1012.1612    297.13714 
     970   0.94977678   -10390.268   -955.13099    299.42249 
     980    0.9499156   -10391.815   -954.69501    299.69619 
     990    0.9501266   -10393.318   -915.08803    296.03744 
    1000   0.95040847   -10394.561   -953.14155    298.83964 
    1010   0.95076454    -10396.04   -1041.1219    301.49447 
    1020   0.95120127   -10397.975   -1064.1527    305.69428 
    1030   0.95171986    -10400.76   -819.33086    305.95808 
    1040   0.95230459   -10404.359   -463.83221    299.82836 
    1050   0.95293095   -10407.961    -168.1734    296.10909 
    1060   0.95357741   -10411.439   -24.870625    298.87283 
    1070   0.95423335   -10414.776   -36.106053    297.01457 
    1080   0.95490118   -10418.335   -333.17006    300.84478 
    1090   0.95560077   -10422.576   -637.03278    305.73265 
    1100   0.95635264   -10427.747   -658.42379    308.97329 
    1110   0.95715876   -10434.418   -403.17556    308.24396 
    1120   0.95800082    -10441.92    24.558905    297.57336 
    1130    0.9588514   -10449.338    87.684183    298.56593 
    1140   0.95970216    -10456.79    88.506868    302.74508 
    1150   0.96055086   -10464.169    357.80383    297.83225 
    1160   0.96137841   -10470.873    731.37531    291.07994 
    1170   0.96215913   -10476.497    805.04939    295.71654 
    1180   0.96288441   -10481.462    812.65617    298.57116 
    1190    0.9635525    -10485.93    939.21521    295.97423 
    1200   0.96415399   -10490.031    1134.4513    293.53137 
    1210   0.96467581    -10492.94    1123.4439    288.65398 
    1220   0.96511904   -10494.799    799.81129    292.78959 
    1230   0.96550361   -10495.867    634.61908    295.38967 
    1240   0.96584283   -10496.688    497.44508    302.45976 
    1250   0.96614568   -10498.109    496.02731    303.57755 
    1260   0.96641077    -10499.58    825.54057     289.5929 
    1270   0.96661861   -10500.503    826.61666    292.11504 
    1280   0.96676608   -10500.629     760.0372    295.80959 
    1290   0.96685699   -10500.517      803.826    297.02242 
    1300   0.96689037   -10500.369    670.86989    298.81287 
    1310     0.966874   -10500.334    550.84182    300.73077 
    1320   0.96681516   -10500.476    673.20037    296.33735 
    1330   0.96670688   -10500.535    752.10526    297.68171 
    1340   0.96654234   -10500.603    854.19671    294.65764 
    1350   0.96631537   -10500.138    812.86826    293.71134 
    1360   0.96602932   -10499.778    443.28315    306.90606 
    1370   0.96570675   -10499.741    313.42593    303.57209 
    1380   0.96535974   -10500.539     267.7353    301.36681 
    1390   0.96499082   -10502.056     294.4503    302.92352 
    1400   0.96459782   -10504.055    456.87387    294.16983 
    1410   0.96417107   -10506.008    455.24945    294.21486 
    1420   0.96370887    -10507.74    417.40433    296.01101 
    1430    0.9632145   -10509.845    240.99426    302.90711 
    1440   0.96270002   -10513.138    28.488381      302.927 
    1450    0.9621811   -10517.829   -146.42342    299.85775 
    1460   0.96167151   -10524.208   -402.81169    302.91564 
    1470   0.96118885   -10532.633   -574.43662    304.39726 
    1480   0.96074504   -10543.471    -508.0909    302.27207 
    1490   0.96033713   -10555.555   -435.19107    294.52975 
    1500   0.95996101   -10567.672   -487.65958    292.39291 
    1510   0.95961865   -10578.749   -430.13867    287.98145 
    1520   0.95930737   -10587.755   -435.90698    284.93518 
    1530   0.95902779   -10594.495   -542.81172    285.46334 
    1540   0.95878666   -10598.995    -583.4845    280.25307 
    1550   0.95858845   -10601.239   -704.88225    281.00108 
    1560   0.95844117   -10601.718   -813.96947    282.76552 
    1570   0.95835308   -10600.298   -866.06741    282.54658 
    1580   0.95832855   -10597.413   -937.24975    288.54659 
    1590   0.95837181    -10593.49   -882.59749    287.79456 
    1600   0.95848185   -10588.452   -938.11264     285.9037 
    1610   0.95866232   -10582.454   -1039.2406    290.79376 
    1620   0.95891883   -10575.487   -888.50869     289.8428 
    1630   0.95924188   -10567.958   -562.79568    286.12441 
    1640   0.95960889   -10559.749   -242.63883    282.60678 
    1650   0.95999805   -10550.735   -147.76958    284.99752 
    1660   0.96040079   -10541.134   -157.15362    291.50738 
    1670    0.9608175   -10531.988   -117.03961     290.9862 
    1680   0.96124676   -10523.496    -185.1732    293.33468 
    1690   0.96169191   -10515.903   -176.09681    297.30735 
    1700   0.96215063   -10509.089    133.42687    291.31422 
    1710   0.96260466   -10503.016    201.05228    294.26596 
    1720   0.96304609   -10497.277    290.97652    298.31286 
    1730   0.96346848   -10492.138    487.47289    290.77573 
    1740   0.96385872   -10486.896    584.95027    289.80133 
    1750   0.96420851   -10481.401    622.11921    295.83356 
    1760   0.96451379   -10475.995    716.64636    296.77266 
    1770   0.96476993   -10470.926    557.96494    303.09177 
    1780   0.96498473   -10466.413    563.58266    300.97534 
    1790   0.96515996   -10462.771    542.03348    302.15271 
    1800   0.96529694   -10459.904    436.70807    305.65922 
    1810   0.96540114   -10457.721    531.01743    300.39429 
    1820   0.96546688   -10456.109    653.89463     301.0531 
    1830   0.96548417   -10454.953    810.24101    301.72282 
    1840   0.96544188   -10454.181    906.26358    299.54037 
    1850   0.96533247   -10453.482    952.78035    296.44234 
    1860   0.96515329   -10452.884    791.47333    299.29669 
    1870   0.96491455   -10452.372    576.15147     297.7988 
    1880   0.96463121    -10451.87    368.88618    301.31376 
    1890   0.96431752   -10451.633    215.59646     305.5036 
    1900   0.96398388   -10452.435     198.6174    308.78385 
    1910   0.96363093   -10454.343    373.61581    302.01763 
    1920   0.96324915   -10457.051    326.73068    302.42097 
    1930   0.96283977   -10460.374    205.34286    303.67789 
    1940   0.96241006   -10464.524    289.89401    297.76914 
    1950   0.96195548    -10469.07    328.88552    297.25502 
    1960   0.96147287   -10473.663    280.32562    294.51683 
    1970    0.9609661   -10478.177    104.81356    293.70946 
    1980    0.9604475   -10482.458   -164.34737     298.4542 
    1990   0.95993531   -10487.116   -344.66906     297.1842 
    2000   0.95944338   -10491.778   -414.32536    297.14319 
    2010   0.95897641   -10496.678   -302.44402     294.8682 
    2020   0.95852777   -10501.557   -199.82952    293.71317 
    2030   0.95809086   -10506.344   -305.01006    298.47864 
    2040   0.95767191   -10511.185    -359.4038    294.54365 
    2050    0.9572746   -10516.071   -266.70901    290.01686 
    2060   0.95689314   -10520.265   -188.60046    287.30899 
    2070   0.95652323   -10523.522   -311.32759    287.76051 
    2080   0.95617255   -10525.788   -430.41819    287.16887 
    2090   0.95585064   -10526.993   -575.54928    290.29256 
    2100   0.95556623   -10527.165    -488.8862     288.4087 
    2110   0.95531365   -10526.173     -185.177    280.43398 
    2120   0.95507443   -10523.268   -224.92707    284.19949 
    2130   0.95484945   -10518.154   -387.72646    286.76963 
    2140   0.95465102   -10510.703   -548.25318    287.16788 
    2150   0.95449154   -10500.917   -735.32466    292.86163 
    2160   0.95438348   -10489.358   -741.13997    292.86695 
    2170   0.95432952   -10476.752   -770.38589    294.16422 
    2180    0.9543323   -10464.039   -789.63173    296.04717 
    2190   0.95439255   -10452.151   -614.38146    291.71407 
    2200   0.95450031   -10441.719   -570.16305    294.63964 
    2210   0.95465268   -10432.652   -694.61631    304.08753 
    2220   0.95485714   -10425.573   -640.88935    300.64411 
    2230   0.95511244   -10420.754   -567.80014    299.66644 
    2240   0.95541337   -10416.891   -474.74262    299.77594 
    2250   0.95575398   -10413.917   -361.70429    302.04659 
    2260   0.95612608   -10411.758   -192.97546    302.55579 
    2270   0.95651959   -10410.513   -204.00789    306.06459 
    2280   0.95693433   -10410.078   -192.87054    301.59239 
    2290   0.95736884   -10410.206   -31.321417    300.61461 
    2300   0.95781153   -10410.583    242.12958    297.50738 
    2310   0.95824329   -10410.821    469.04036    297.31872 
    2320   0.95864813   -10411.135    457.61361    301.03887 
    2330   0.95902631   -10411.675    318.85392    299.13313 
    2340   0.95938762   -10412.512    118.13077    299.33774 
    2350   0.95974517    -10413.36    29.087343    297.48416 
    2360   0.96010678   -10414.196    -80.16524    298.34002 
    2370   0.96048023   -10415.178   -181.80381    304.31189 
    2380   0.96087123   -10416.785   -14.516176    301.38673 
    2390   0.96127051   -10418.975    97.321117    299.05157 
    2400   0.96166995   -10421.516    79.692952    301.66005 
    2410   0.96206869   -10424.513    231.70027    301.07424 
    2420   0.96245621   -10428.016    445.74528    300.17434 
    2430   0.96281779   -10431.889     556.0903    299.07779 
    2440   0.96314455   -10436.399    598.79624     302.0708 
    2450   0.96343135   -10441.373    727.81262    299.95546 
    2460   0.96366998   -10446.964    682.76856    304.20969 
    2470     0.963861   -10453.574    708.20596    305.20825 
    2480   0.96400255   -10461.131    826.24731    297.73072 
    2490   0.96408633   -10468.718    799.03634    294.83377 
    2500   0.96411358   -10476.139    587.14817    297.53425 
    2510   0.96409617   -10483.159    553.63714    296.26046 
    2520   0.96403761   -10489.813    503.30036     296.9939 
    2530   0.96394088   -10496.273    377.80585    300.59997 
    2540   0.96381429   -10502.456    244.38306    297.30874 
    2550   0.96366795   -10508.089    65.190731    295.45109 
    2560   0.96351344   -10512.983    -2.454862    295.69523 
    2570   0.96335597   -10517.563   -24.085325    298.15931 
    2580   0.96319648   -10521.647    50.176856    295.10965 
    2590   0.96302955   -10524.699    262.34589    286.27216 
    2600   0.96284181    -10526.52    199.16744    289.50901 
    2610   0.96263615   -10527.181   -62.319723    293.71572 
    2620   0.96243056    -10527.17   -215.29614    293.77284 
    2630   0.96223627   -10526.706    -209.6683    292.82586 
    2640   0.96205428   -10525.759    -203.3855    293.83984 
    2650   0.96188289   -10524.377   -119.55202    294.75412 
    2660   0.96171727   -10522.739   -81.013705    294.35516 
    2670   0.96155416   -10520.832   -21.580263    292.55732 
    2680     0.961389   -10518.238    82.313132    290.45107 
    2690   0.96121576   -10515.265   -14.287426    297.58579 
    2700    0.9610387   -10512.222    10.103844    297.85201 
    2710   0.96085722   -10509.354    97.453777    296.83475 
    2720   0.96066393   -10506.366    295.35539    290.08229 
    2730   0.96044738   -10503.124    157.11936    292.91206 
    2740    0.9602145   -10499.166   -59.558195    292.45729 
    2750   0.95998168   -10495.171   -339.95393    294.45181 
    2760   0.95976894   -10491.146   -542.72796    297.26951 
    2770   0.95959059   -10487.303   -519.33954    299.09057 
    2780   0.95944683   -10484.105   -458.02516    304.44769 
    2790   0.95933236   -10481.584   -224.73713    300.81027 
    2800   0.95923391   -10480.051   -165.15224    303.55088 
    2810    0.9591444   -10479.153    12.405818    297.16491 
    2820   0.95905303   -10478.275    140.95697    290.72024 
    2830   0.95895098   -10477.023    17.696215    296.98586 
    2840   0.95884412   -10475.621    35.510747    296.11687 
    2850   0.95873309   -10474.277   -3.8820627    298.21686 
    2860   0.95861991   -10473.091   -72.941706    298.47324 
    2870   0.95850913   -10472.054   -40.046829    293.12954 
    2880   0.95840001   -10470.814   -119.90189    294.55648 
    2890   0.95829802   -10469.428    -294.6717    297.28873 
    2900   0.95821524   -10467.914     -425.835    300.62573 
    2910   0.95816214   -10466.946   -495.06505    304.24335 
    2920   0.95814347   -10466.695   -357.88991    302.69325 
    2930   0.95814955   -10466.719    19.872423    289.97887 
    2940   0.95815727   -10466.339    21.352162    294.04082 
    2950    0.9581636   -10465.404   -117.34356     300.5742 
    2960   0.95817799   -10464.735   -178.19656    302.63767 
    2970   0.95820497   -10464.616   -89.119284    300.24007 
    2980   0.95823978   -10465.013   -61.481515    301.24699 
    2990   0.95827942   -10465.661    9.2090471    297.52067 
    3000    0.9583195   -10466.149     67.98954    294.47252 
    3010   0.95835631   -10466.182   -7.5799919    294.37237 
    3020    0.9583947   -10465.877   -101.84334    294.51249 
    3030   0.95844237   -10465.225   -290.02813    301.78564 
    3040    0.9585117   -10464.778   -338.03541    297.61622 
    3050   0.95860747   -10464.095   -252.83094    285.46064 
    3060    0.9587263   -10462.392   -420.24858    288.62711 
    3070   0.95887859   -10459.284    -619.9552     294.0087 
    3080   0.95907892   -10455.485   -717.84357      297.706 
    3090    0.9593365   -10451.487   -771.47147    301.70122 
    3100   0.95965503   -10447.222   -595.24546    298.49187 
    3110   0.96002463   -10443.042   -422.68339    299.24153 
    3120   0.96043259   -10438.113   -233.68861    295.52069 
    3130   0.96086703   -10432.502   -158.23174    297.14107 
    3140   0.96132092   -10425.975    -31.36878    297.42619 
    3150   0.96178639   -10418.449    10.827399    299.66514 
    3160   0.96225978   -10410.125    15.202225    305.40212 
    3170   0.96273902    -10401.52    216.54803    305.82841 
    3180   0.96321069   -10393.172    448.38425    306.61845 
    3190   0.96365749   -10385.198     630.5274    308.27939 
    3200   0.96406377   -10377.536      937.708    302.99488 
    3210   0.96440823    -10370.21    1104.8837    300.00771 
    3220   0.96467837   -10362.983    999.53228    306.09393 
    3230   0.96487815   -10356.104    944.42308    304.97794 
    3240   0.96501088   -10349.944    929.31559    303.16568 
    3250   0.96507658   -10344.109    908.78185    303.00256 
    3260   0.96507633   -10338.736    803.94167    307.25242 
    3270   0.96501651   -10334.238    642.28849    314.08545 
    3280   0.96490721   -10331.364    594.86384    314.99455 
    3290   0.96475195   -10330.414    663.37945    309.08179 
    3300   0.96454661   -10331.238    558.01804    311.29828 
    3310   0.96429621   -10333.825    457.32139    314.52371 
    3320   0.96400783   -10338.898     412.3773    315.26072 
    3330    0.9636839   -10347.131    464.00656    312.43434 
    3340   0.96332129    -10358.72     443.2558    310.63362 
    3350   0.96292156   -10373.706    267.33741    308.55107 
    3360   0.96249606   -10390.399    170.15198    302.15593 
    3370   0.96205266   -10406.546     99.47619    298.55833 
    3380    0.9615963   -10420.321    26.367162    298.56111 
    3390   0.96113184    -10430.62    9.6215367    295.55161 
    3400   0.96066243   -10437.753   -160.80048    297.09064 
    3410   0.96019964   -10443.132   -436.46159     303.5155 
    3420   0.95976209   -10447.665   -536.29875    304.57323 
    3430   0.95935799   -10452.069   -468.16166    300.93788 
    3440   0.95898549   -10455.928   -505.79505    296.92982 
    3450   0.95864708   -10459.291    -640.1171    298.49051 
    3460   0.95835127   -10462.332   -619.06368     298.1844 
    3470   0.95809725   -10465.216   -471.47431    295.94662 
    3480   0.95787565   -10467.856   -391.45364     299.1148 
    3490   0.95768026   -10470.522   -319.20221    301.56328 
    3500   0.95750474   -10473.088   -53.733599    289.78121 
    3510   0.95733387   -10475.256   -49.977193    290.31302 
    3520   0.95716502   -10476.446   -88.606821    292.54964 
    3530    0.9570004    -10476.71    -43.33316    289.55912 
    3540   0.95683801   -10476.186   -114.93978    290.21578 
    3550   0.95668299   -10474.827    -289.3962     294.1427 
    3560   0.95654804   -10472.778   -525.55067    298.55413 
    3570   0.95645098   -10470.924   -788.00162    305.60532 
    3580   0.95640947   -10469.581   -793.03374    302.30824 
    3590    0.9564267   -10468.766   -728.87148     297.5225 
    3600   0.95649885   -10468.235   -729.05658    303.11907 
    3610   0.95662373   -10467.989   -474.71327    299.05479 
    3620   0.95678506   -10467.868   -183.95988    294.26618 
    3630   0.95696343   -10467.665   -174.13504    300.47253 
    3640   0.95715597    -10467.57   -163.51585    298.78704 
    3650   0.95736277   -10467.559   -150.14052    295.60602 
    3660   0.95758351   -10467.195   -205.27602    295.28878 
    3670   0.95782212   -10466.644   -283.14784    296.02895 
    3680   0.95808502    -10465.98   -457.04152    305.99657 
    3690   0.95838184    -10465.73   -312.79237    303.14086 
    3700   0.95870561   -10466.363    -155.7886    300.36515 
    3710   0.95904359   -10467.001    79.912275    291.91266 
    3720   0.95938037   -10467.322    162.05152    292.38402 
    3730   0.95970821   -10466.922    221.07842    294.25215 
    3740   0.96002262   -10465.748    296.56873    293.00232 
    3750   0.96031929   -10464.111    179.59852    298.06897 
    3760   0.96060475   -10462.335    116.40963    301.16656 
    3770   0.96088378   -10460.519    155.04593    298.01221 
    3780   0.96115449   -10458.512     157.7736    295.20709 
    3790   0.96141675   -10456.165    59.223757    301.73548 
    3800   0.96167517    -10454.07    143.27649    303.80285 
    3810   0.96192448   -10452.303    353.82563    299.04595 
    3820   0.96215263    -10450.89    239.29003    306.64261 
    3830   0.96236273   -10450.081    367.59152    303.34858 
    3840   0.96254794     -10449.8    547.98606    295.36395 
    3850   0.96269512   -10449.248    592.23939    293.44695 
    3860   0.96280072    -10448.18    499.66274    296.31665 
    3870    0.9628694   -10446.775    492.88555    298.59395 
    3880   0.96290176   -10445.057    576.60227    295.90843 
    3890    0.9628928   -10443.049     507.9571    299.06338 
    3900   0.96284617   -10440.841    406.74435    297.50391 
    3910   0.96276937   -10438.293     313.1323    293.38531 
    3920   0.96266948   -10435.229    140.35751    299.20212 
    3930   0.96255764   -10431.689    68.561145     300.4733 
    3940    0.9624394   -10428.071    51.999301    301.39932 
    3950   0.96231546   -10424.519    112.86686    300.28593 
    3960    0.9621821   -10420.971    180.56085    299.48767 
    3970   0.96203453   -10417.223    268.90787    298.22218 
    3980   0.96186476   -10413.126    529.86714    292.86066 
    3990   0.96165545   -10408.619    610.17299     299.9061 
    4000   0.96139851   -10403.685    612.99655    304.99518 
    4010   0.96109411   -10399.024    632.95904    300.58935 
    4020   0.96074157   -10394.513    571.88518     299.0158 
    4030   0.96034395   -10389.815    472.24614    305.13513 
    4040   0.95990719   -10385.577    397.44997    305.59007 
    4050   0.95943922   -10382.206    89.862849    308.48103 
    4060   0.95896071   -10379.696   -208.92802     308.1509 
    4070   0.95849344     -10378.5   -372.31264    308.05987 
    4080   0.95804934   -10378.128   -381.04023    305.90817 
    4090   0.95763153   -10378.888   -531.51027    310.63231 
    4100    0.9572486   -10381.353   -542.90178     312.1219 
    4110   0.95690248   -10386.067   -471.62076    309.00288 
    4120   0.95658803   -10392.463   -313.02223    301.21673 
    4130   0.95629591   -10399.617    -298.4793    299.07921 
    4140   0.95602506   -10407.542   -477.35822    301.15756 
    4150   0.95578808   -10416.241   -685.21175    305.15176 
    4160   0.95559838   -10426.271   -659.35236     305.4801 
    4170   0.95545483   -10436.481   -437.57465    295.42394 
    4180   0.95534383   -10445.924   -384.26606    294.81004 
    4190   0.95526008   -10454.266   -325.66229    294.79599 
    4200   0.95519963    -10461.03    -217.1755    289.06782 
    4210   0.95515645    -10466.14   -304.21141    291.11892 
    4220   0.95513562   -10469.957   -419.17586    291.46123 
    4230   0.95514509   -10472.277   -436.20227    287.67898 
    4240   0.95518793    -10473.27   -541.84896    290.05499 
    4250   0.95527051   -10473.448   -604.65503     296.0421 
    4260   0.95539689   -10473.261   -455.09861    292.67362 
    4270    0.9555585   -10472.764   -367.48337    295.81025 
    4280   0.95574762   -10471.681   -243.20675    294.10304 
    4290   0.95595791   -10470.385   -331.70203    297.53674 
    4300   0.95619476   -10469.382   -529.52414    305.67991 
    4310   0.95647022   -10468.855   -410.13896    298.02959 
    4320   0.95677957   -10468.726   -330.72948    295.21968 
    4330   0.95711572   -10468.092   -267.38235    295.88954 
    4340   0.95747585   -10467.727   -395.15127     304.8661 
    4350     0.957866   -10467.691   -296.31269     301.8754 
    4360   0.95828128   -10468.181   -134.54969    299.62719 
    4370   0.95870995   -10468.905    14.249662    298.81346 
    4380   0.95914086   -10469.437    180.36985    296.52288 
    4390   0.95956222   -10470.037    201.62414    302.50338 
    4400    0.9599716   -10471.259    175.03896     305.8256 
    4410   0.96037013   -10473.346    260.89568    301.47363 
    4420   0.96075335   -10476.053    217.38326    301.76874 
    4430   0.96112463    -10479.64   -58.862498     309.7028 
    4440    0.9615008   -10484.606   -66.270236    304.75162 
    4450   0.96188439   -10490.788    63.286431     297.3435 
    4460   0.96226667   -10497.779    108.93664    301.24309 
    4470   0.96264269   -10505.553    203.72078    300.35009 
    4480   0.96300649   -10514.179    244.57299    297.44562 
    4490   0.96335578   -10522.963    159.28239    292.47401 
    4500   0.96369657   -10531.285    -3.214148    291.34878 
    4510   0.96404005   -10539.182   -185.66672    293.74974 
    4520   0.96439811   -10546.457   -192.55237    290.85626 
    4530   0.96477284   -10552.831   -175.06085    290.92323 
    4540     0.965163   -10557.958   -152.91697    290.41224 
    4550   0.96556763   -10561.991    -203.4719    289.45554 
    4560    0.9659897   -10564.877   -216.01975    293.38754 
    4570   0.96642872   -10567.062   -34.104673    294.35282 
    4580   0.96687248   -10568.374    202.03822    290.96788 
    4590   0.96730467   -10569.321    285.86501    296.45944 
    4600   0.96771718   -10569.477    459.23184    292.59803 
    4610   0.96809949   -10569.157    513.31174     290.8762 
    4620   0.96844612    -10568.19    541.65596    294.14549 
    4630   0.96875389   -10566.692    663.88004    291.02614 
    4640   0.96901579   -10564.859     608.3008    293.18972 
    4650     0.969234   -10562.632    527.58092    293.24711 
    4660   0.96941493    -10560.48    394.67182     298.4883 
    4670   0.96956597   -10558.639    431.92256    298.06581 
    4680   0.96968682    -10557.32    395.03913    299.53665 
    4690   0.96977915   -10556.341    283.76258    301.75598 
    4700   0.96985027   -10555.784    265.08686    299.80221 
    4710   0.96990305   -10555.814    175.64844    300.96076 
    4720   0.96994349   -10556.025    31.838284     302.4683 
    4730   0.96998084   -10556.673    12.830825    299.65455 
    4740   0.97001664   -10557.377    128.51502    299.11417 
    4750   0.97004137   -10558.093    492.35491    290.79187 
    4760   0.97003084   -10558.016     748.5915    286.64602 
    4770   0.96996769   -10557.023    612.64492    293.02688 
    4780   0.96985787   -10555.139    551.21788     290.1326 
    4790   0.96970834   -10552.744    292.58383    296.97133 
    4800    0.9695356   -10550.083    53.062717    301.55388 
    4810   0.96935697   -10547.686   -14.544082    298.01995 
    4820   0.96917841   -10545.502   -24.123024    294.78206 
    4830   0.96900073   -10542.971   -26.314745    292.29164 
    4840   0.96882441   -10539.774   -89.452769     294.9898 
    4850    0.9686535   -10536.268   -149.37724    300.88042 
    4860   0.96849186   -10533.054    -113.7012    304.42975 
    4870   0.96833648   -10530.402    83.401437    300.56594 
    4880   0.96817594   -10527.934    84.774492    294.18812 
    4890   0.96800979   -10525.283   -125.49994    299.43222 
    4900   0.96784992   -10522.585    -114.8817    301.18192 
    4910    0.9676965   -10520.095    51.689178    298.83259 
    4920   0.96753775   -10517.822    286.93027    296.63295 
    4930   0.96735654   -10515.132      531.635    291.15662 
    4940   0.96713693   -10511.508    468.49238    289.99256 
    4950   0.96688146   -10506.614    337.98285    289.47153 
    4960   0.96659926   -10500.373    200.83402    293.84389 
    4970   0.96630043   -10493.052   -11.655179    302.65277 
    4980   0.96599967   -10485.509   -159.18533    303.71152 
    4990    0.9657087   -10478.658   -279.37706    304.19378 
    5000   0.96543666    -10472.11   -399.64541    305.15144 
    5010   0.96519101   -10466.269   -348.08885    301.00291 
    5020   0.96496935   -10460.891   -278.45268    301.99278 
    5030   0.96476761   -10455.897   -289.11865    301.74391 
    5040   0.96458492   -10451.145   -158.37758     299.5407 
    5050   0.96441159    -10446.64    115.35305    297.85018 
    5060   0.96422866   -10441.919    316.81089    294.26276 
    5070   0.96402337   -10436.939    180.88465    296.70511 
    5080   0.96380335   -10431.382   -30.551671    299.33893 
    5090   0.96358451   -10425.995   -301.23355    307.06029 
    5100   0.96338346   -10420.918   -221.36588    304.74609 
    5110   0.96319777   -10416.882   -152.74118    306.14719 
    5120   0.96302176   -10413.634    -85.83407     306.5145 
    5130   0.96284981   -10410.995     94.20034    303.70595 
    5140   0.96267072   -10409.243    84.720322    307.23806 
    5150    0.9624837   -10408.509    70.574796    304.65459 
    5160   0.96228991   -10408.358    73.650137    301.94877 
    5170   0.96208917   -10408.492     77.69931    295.25204 
    5180   0.96188361   -10408.703   -213.83676    300.46149 
    5190   0.96169091   -10409.063   -378.71759    300.45021 
    5200   0.96152512   -10409.805   -503.47314    298.53237 
    5210   0.96139418   -10411.055   -472.44893     298.6215 
    5220   0.96129584   -10413.002   -278.16106    298.23993 
    5230   0.96121735   -10415.336   -100.61382     295.9061 
    5240   0.96114635   -10417.852    12.036922    292.00193 
    5250   0.96107543   -10420.476    -100.6862    296.43776 
    5260   0.96101143   -10423.175   -275.85827    301.60928 
    5270   0.96096484   -10426.317   -119.74175    297.50226 
    5280    0.9609265   -10429.972    146.95472    292.74905 
    5290   0.96087785   -10433.125    280.73466    290.00021 
    5300   0.96081088   -10435.902   -29.327424     302.9525 
    5310   0.96074343     -10439.2   -146.76366    304.63612 
    5320   0.96068511   -10443.215    -52.67145    300.29349 
    5330   0.96062998   -10447.713    57.997853    297.59545 
    5340   0.96057111   -10452.358    21.927545    297.09268 
    5350   0.96050999   -10457.195   -48.309604    300.45421 
    5360   0.96045051   -10462.186    92.145674    294.62148 
    5370   0.96038371   -10466.571    287.99546    287.10343 
    5380   0.96029666   -10469.798    243.18833    285.54013 
    5390   0.96019272   -10471.897   -88.970442    292.65567 
    5400    0.9600928   -10473.328   -280.30939    296.65042 
    5410   0.96001074   -10474.531   -206.63779      293.726 
    5420   0.95994407   -10475.353   -231.11071     295.9822 
    5430   0.95989376   -10475.626   -224.17943    291.89211 
    5440   0.95986049   -10475.424   -251.58099    290.62963 
    5450   0.95984558    -10474.44   -327.32293    296.52885 
    5460   0.95985443   -10473.058   -389.59025    301.91162 
    5470   0.95989131   -10472.066   -313.30681    301.22368 
    5480   0.95995169    -10471.33   -196.31399    302.08761 
    5490   0.96002675   -10471.294   -66.392655    303.12026 
    5500    0.9601066    -10471.53    140.66654    295.36703 
    5510   0.96017814   -10471.916     242.6635     297.5175 
    5520   0.96023257   -10471.968    289.08745    298.82756 
    5530   0.96026736   -10472.437    145.78014    305.50951 
    5540   0.96029039   -10473.543    123.83483      303.784 
    5550   0.96030492   -10475.448     138.0843    299.63011 
    5560   0.96030939    -10477.97    186.92154    297.89582 
    5570   0.96029994   -10480.575    289.23284    293.38495 
    5580   0.96026982   -10483.166    250.60731    296.82014 
    5590   0.96021968   -10485.617    299.36909    297.60159 
    5600   0.96014556   -10488.097    485.52137    290.19369 
    5610    0.9600368   -10489.994    373.19656    293.76261 
    5620   0.95989863   -10491.727    228.78395    300.08943 
    5630   0.95974125    -10493.37    192.59353    295.73541 
    5640   0.95956864    -10495.51    45.873027    301.88073 
    5650    0.9593882   -10497.786    173.17959    293.52329 
    5660   0.95919414   -10499.819    182.16404    291.63543 
    5670   0.95898517   -10501.712   -48.735665    299.94683 
    5680   0.95877639   -10503.594   -239.54898    298.07749 
    5690    0.9585838   -10506.184   -509.04907    302.03277 
    5700   0.95842407   -10509.246   -440.25959    296.73598 
    5710   0.95829498   -10512.551   -291.90961    290.25929 
    5720   0.95818647   -10515.217   -264.80345    288.46066 
    5730   0.95809712   -10517.074   -392.82632    288.65863 
    5740   0.95803634   -10518.053   -606.26442    292.72854 
    5750    0.9580184   -10518.374   -622.46312    290.86875 
    5760   0.95804684   -10517.949   -618.93621    293.08719 
    5770   0.95812064   -10516.752   -503.50155    291.50082 
    5780   0.95823293   -10514.751   -400.70049    293.11477 
    5790   0.95837584   -10511.916   -277.97548    295.30465 
    5800   0.95854124   -10508.301   -154.31708    290.22911 
    5810   0.95872214   -10503.541   -239.01668    293.04239 
    5820   0.95892234   -10497.481   -232.56588    293.03117 
    5830   0.95914353   -10490.703   -304.62742    300.04864 
    5840   0.95939008   -10483.229   -345.85705    304.30447 
    5850    0.9596649   -10476.194   -217.25062     300.7468 
    5860   0.95995937   -10469.536   -9.9714381    300.28593 
    5870   0.96025817   -10463.016    279.91157    297.64881 
    5880   0.96054102   -10456.381    505.94321     297.0115 
    5890   0.96079009   -10449.692    763.57016    288.95825 
    5900   0.96098974   -10442.517    574.23384    297.42645 
    5910   0.96114872   -10435.083     408.6101    306.74321 
    5920   0.96127686   -10428.883    629.20262    301.70483 
    5930    0.9613615   -10423.532    735.61386    296.64754 
    5940   0.96139467   -10418.489    537.89605    302.25768 
    5950   0.96138902   -10414.338      191.167     314.1029 
    5960   0.96136516   -10411.957    340.75192    306.58736 
    5970   0.96131615   -10410.796    554.72147    303.23488 
    5980   0.96122591   -10410.492    631.01707    305.28707 
    5990   0.96108738    -10411.09    705.58791    304.24655 
    6000   0.96089406   -10412.158    827.38457    298.74704 
    6010   0.96063858   -10413.808    689.68383     304.0476 
    6020   0.96032646   -10415.887    705.21813    304.72822 
    6030   0.95995733   -10418.822    807.57419    301.98952 
    6040   0.95952318   -10422.072    909.54139    292.23999 
    6050   0.95901832   -10424.856    708.85883    290.49819 
    6060   0.95845547   -10426.748    283.41533    297.45036 
    6070    0.9578643   -10428.615   -156.23164    305.23424 
    6080    0.9572746   -10431.013   -227.71199    299.36256 
    6090    0.9566955    -10433.84   -337.84285    301.11395 
    6100   0.95613313   -10437.055   -317.78362    299.21062 
    6110   0.95558686   -10440.365    -146.1299    290.04068 
    6120   0.95504742     -10443.4   -267.26228    290.89086 
    6130    0.9545226   -10445.829   -587.08049    296.32542 
    6140   0.95403496   -10448.047   -864.80001    295.32397 
    6150   0.95360659   -10450.452    -1124.074    298.76216 
    6160   0.95325428   -10453.344   -1006.6444    295.27628 
    6170   0.95297218   -10456.789   -745.39726    295.42656 
    6180   0.95274193    -10460.84   -519.87353     291.8567 
    6190   0.95254913   -10465.052   -529.62611    291.01954 
    6200    0.9523941   -10469.984   -637.43352    294.82421 
    6210   0.95228301   -10474.896   -492.74535    283.55051 
    6220   0.95220946   -10479.602   -570.57464    287.30559 
    6230   0.95217719   -10483.968   -694.35729    294.80912 
    6240   0.95219463   -10488.609   -621.16523    294.09054 
    6250   0.95225772   -10493.156   -441.39953    286.55804 
    6260   0.95235567   -10496.877   -400.55732    283.31546 
    6270   0.95248456   -10499.335   -417.92706    285.80498 
    6280   0.95264538   -10500.517    -359.9956    284.63483 
    6290   0.95283594   -10500.272    -417.9111     281.9518 
    6300   0.95306091   -10498.152   -612.23906    281.10705 
    6310   0.95333337    -10494.15   -799.69365    289.44903 
    6320   0.95366634   -10488.552   -803.20415    295.67248 
    6330   0.95406093   -10482.169   -554.63821    292.68444 
    6340   0.95450216   -10475.109   -401.29985     291.7362 
    6350   0.95497849   -10467.208   -315.58261    293.56617 
    6360   0.95548326   -10458.886   -229.86579    295.55096 
    6370   0.95601182   -10450.388   -352.75188    302.56358 
    6380   0.95657129   -10442.749   -428.44873    305.86688 
    6390   0.95716536   -10436.396   -101.42085    298.32068 
    6400   0.95777406   -10430.703    89.794792    300.16106 
    6410   0.95838111   -10425.345    326.46918    295.83061 
    6420   0.95897034   -10420.211     475.4935    295.41242 
    6430   0.95952965   -10415.211    533.29338    301.61216 
    6440   0.96005359   -10410.508    629.29408    301.52316 
    6450    0.9605364   -10406.661    561.46258    301.90364 
    6460   0.96098222   -10403.485    370.99227    305.93491 
    6470   0.96140247   -10401.228    385.56952    305.51659 
    6480   0.96179742   -10400.094    430.09538    306.40819 
    6490    0.9621631   -10400.236     461.0268    310.26058 
    6500   0.96249663   -10401.398    533.69833    305.94335 
    6510   0.96279472   -10403.973    378.73343     312.7714 
    6520   0.96306408   -10408.157    505.01558    309.17607 
    6530   0.96329751   -10413.352     779.2969    301.24539 
    6540   0.96347615   -10419.324    879.10597    302.52241 
    6550   0.96359208   -10425.638    771.30878    303.67873 
    6560   0.96365263   -10432.597    537.05929    306.85782 
    6570    0.9636731   -10440.447    408.74662    306.51908 
    6580   0.96366309   -10449.221    358.05682    306.95468 
    6590   0.96362554   -10458.291     440.3327    303.18683 
    6600   0.96355502    -10466.96    561.95029    301.74423 
    6610   0.96344355   -10474.895    551.56833    300.61774 
    6620    0.9632911   -10482.054    453.91026    300.82972 
    6630   0.96310311   -10487.939    489.16898    297.33957 
    6640   0.96287877   -10493.065    409.94923    301.08694 
    6650   0.96262134   -10497.576    454.47155    299.82077 
    6660   0.96233012   -10501.457     375.0796    297.55577 
    6670   0.96201072   -10504.694    112.25336    300.68968 
    6680   0.96168064   -10507.805   -87.768098    302.43499 
    6690   0.96135343   -10510.776   -62.410228    299.33648 
    6700   0.96102866   -10513.849    39.566283      295.245 
    6710   0.96069972   -10516.277    15.692126    295.36523 
    6720   0.96036832   -10518.297   -138.26903    298.15281 
    6730   0.96004368   -10520.017   -92.665011    297.58655 
    6740   0.95972344   -10521.582    67.202975    295.29403 
    6750   0.95939774   -10522.892     37.59575    295.16089 
    6760   0.95906866   -10523.641   -183.02016    294.41329 
    6770   0.95875078   -10523.998   -312.31335    292.61802 
    6780   0.95845462    -10523.91   -459.83505    296.49776 
    6790   0.95819014   -10523.428   -510.55607    297.70299 
    6800   0.95796076   -10522.942   -364.12444    295.73592 
    6810   0.95775723   -10522.286   -250.22186    291.11482 
    6820   0.95757345   -10521.053   -475.11987    298.34789 
    6830   0.95742206   -10519.398   -537.39223    298.60384 
    6840   0.95730872    -10517.71   -424.82979     294.8824 
    6850   0.95722653   -10515.664   -340.50986    296.64335 
    6860   0.95716868   -10513.157   -219.52508    295.59526 
    6870   0.95712684   -10510.298   -83.316348    293.78801 
    6880   0.95709084   -10506.664    58.379682    292.48568 
    6890   0.95705047   -10502.155    176.11659    290.98032 
    6900   0.95699802   -10496.443    100.77892    297.02226 
    6910   0.95693755   -10489.733   -2.3996991    298.63076 
    6920   0.95687728   -10482.589   -108.05987    294.95786 
    6930   0.95682625   -10474.857   -384.20432    300.57135 
    6940   0.95680182   -10466.751   -474.26859    307.32765 
    6950   0.95680906    -10459.21   -107.19872    298.99061 
    6960   0.95682647   -10452.166    58.845639    298.94552 
    6970   0.95683955   -10445.091    216.16185    297.37479 
    6980   0.95683758   -10438.134    288.89768    295.27175 
    6990   0.95681556   -10431.235    156.47933    301.30188 
    7000   0.95678127   -10424.497    65.560843    299.62267 
    7010   0.95674383   -10418.671   -216.71448    304.57039 
    7020   0.95672125   -10413.858   -403.28694    310.15404 
    7030   0.95672625   -10410.576    -263.5622     302.0844 
    7040   0.95675176   -10408.246   -160.00625    299.06186 
    7050   0.95678917   -10406.356   -100.29833    301.78112 
    7060   0.95683375   -10404.908   -35.873844    301.65478 
    7070   0.95688129   -10403.986    26.138696    299.42568 
    7080   0.95692764   -10403.494    23.167852    300.16953 
    7090   0.95697297   -10403.121   -45.326343    300.72704 
    7100   0.95702241   -10403.379   -112.64366    302.46081 
    7110   0.95707978   -10403.893   -78.833316    302.17202 
    7120   0.95714314   -10404.774   -16.329161    301.73152 
    7130    0.9572078   -10405.912     88.17381    296.10205 
    7140   0.95726702   -10406.822     141.1737    294.32313 
    7150   0.95731599   -10407.536    159.84309    297.78148 
    7160   0.95735252   -10407.809    261.21463    296.14015 
    7170   0.95737118   -10407.939    202.28807    301.70782 
    7180   0.95737554   -10408.453     90.88458    302.25755 
    7190   0.95737174   -10409.141    216.25488    295.66877 
    7200   0.95735265   -10409.901    304.14875    297.36435 
    7210   0.95731059   -10410.357    332.19573    296.90252 
    7220   0.95724558    -10410.58    106.57774    299.60891 
    7230   0.95717249   -10411.227   -165.01608     305.9806 
    7240   0.95710934   -10412.355   -193.77148    303.96697 
    7250   0.95706163   -10414.172   -340.19812    305.16262 
    7260   0.95703863   -10416.458   -452.02394    303.87888 
    7270   0.95704899   -10419.173   -513.70931    303.09988 
    7280    0.9570963   -10422.113   -415.07395    302.12641 
    7290   0.95717415   -10425.059   -271.67754    299.56614 
    7300   0.95727389   -10427.887   -332.37356    303.87058 
    7310   0.95739811   -10431.055   -325.16618    302.77562 
    7320   0.95754744   -10434.368   -271.15503    301.35716 
    7330   0.95771696   -10437.978   -124.35797    301.63015 
    7340   0.95789681   -10441.186     39.92998    296.50046 
    7350   0.95807541   -10444.196    115.98384    295.61292 
    7360   0.95824626   -10446.343    225.14001    291.13141 
    7370   0.95840339   -10447.816    139.02933    294.55128 
    7380   0.95855042    -10448.64    122.16773    295.56367 
    7390   0.95869019   -10449.227    35.204422    297.31936 
    7400   0.95882776   -10449.639    7.8354428    299.27172 
    7410   0.95896491   -10450.079    105.84252    298.13174 
    7420   0.95909567   -10450.762    142.47926    298.96049 
    7430   0.95921622   -10451.316    222.87955    297.51935 
    7440   0.95932152   -10451.983    247.81065     298.9537 
    7450   0.95940895   -10452.432    260.78578     296.6616 
    7460   0.95947936   -10452.956    81.564026     299.9744 
    7470     0.959543   -10453.593    10.713336    301.60787 
    7480   0.95960602   -10454.873   -8.3178515    306.51617 
    7490   0.95966789   -10456.973    228.20237    300.73152 
    7500    0.9597139   -10459.453    452.86646    291.99964 
    7510   0.95972959   -10461.632    299.70834    297.59941 
    7520   0.95972178   -10463.684    258.75772    298.68586 
    7530   0.95969439   -10466.074    304.82512    297.60739 
    7540   0.95964359   -10468.517    451.45434     290.7745 
    7550   0.95956045   -10470.208     454.1823    288.63858 
    7560    0.9594447    -10471.17    209.51263    293.40717 
    7570   0.95931356    -10471.62   -139.63781    298.53689 
    7580   0.95919135   -10472.243    -370.4151    303.24706 
    7590   0.95909336   -10473.426   -278.54383    297.57932 
    7600   0.95901637   -10475.137   -251.24867     293.9762 
    7610     0.958958   -10476.799   -323.44482    294.18514 
    7620   0.95892378   -10478.404    -497.4382    296.70732 
    7630   0.95892687   -10480.396   -762.60105    299.94613 
    7640   0.95898483   -10482.689   -775.18415    295.81578 
    7650   0.95910051   -10485.215   -650.28721    293.48167 
    7660   0.95926422    -10487.77   -427.86894    293.12465 
    7670   0.95945954   -10489.983   -116.70825    292.66028 
    7680   0.95966493   -10491.895     114.9534    294.76104 
    7690    0.9598626   -10493.397     337.4222    292.29537 
    7700   0.96003753   -10494.332    418.56938    290.80547 
    7710   0.96018315   -10494.562    432.13113    291.42697 
    7720   0.96029685    -10493.98    560.36733    288.52358 
    7730   0.96037068   -10492.325    577.31292    291.54973 
    7740   0.96040258    -10489.85    481.45742    293.11764 
    7750   0.96039918   -10486.574    362.30779    293.21813 
    7760    0.9603701   -10482.618    100.39395    301.46363 
    7770    0.9603319   -10478.706   -20.357811    305.88521 
    7780   0.96029392   -10475.569     38.18264    302.15245 
    7790   0.96025222   -10472.638    222.00963     295.9119 
    7800   0.96019466   -10469.733    331.14767    297.49525 
    7810   0.96011163   -10466.374    486.55701    294.55874 
    7820   0.95999368    -10462.59    447.60531    296.38018 
    7830    0.9598426    -10458.32    295.36717    297.04742 
    7840   0.95966971   -10454.005    76.475337    301.06815 
    7850   0.95948965   -10449.835   -65.411035    305.11915 
    7860   0.95931263   -10446.269    -70.39999    302.05281 
    7870   0.95914008   -10442.978   -47.807503    298.44023 
    7880   0.95897051   -10439.854   -27.845267    300.39375 
    7890   0.95880133   -10436.625    62.951017    302.60721 
    7900   0.95862652   -10434.008    136.61484    305.08749 
    7910   0.95843995   -10432.133    266.70466    303.56153 
    7920   0.95823332   -10430.832    305.45175    301.79081 
    7930   0.95800385   -10429.824    211.48679     302.9134 
    7940   0.95775728   -10429.566    159.07693    305.39886 
    7950   0.95749634   -10429.922    335.49319    297.70263 
    7960     0.957211   -10430.644    356.09466    296.01695 
    7970   0.95689887   -10431.192    194.60269    299.72311 
    7980    0.9565707   -10431.917    45.430285    301.42588 
    7990   0.95623674   -10432.755 -0.071483445    295.11382 
    8000   0.95590374   -10433.657   -364.16888    298.98066 
    8010   0.95559652   -10435.042   -815.46066    307.04793 
    8020    0.9553465   -10437.398     -977.035     304.1069 
    8030   0.95516555   -10440.469   -797.32325    294.31159 
    8040   0.95504414   -10444.108   -780.41228    301.94506 
    8050   0.95497743   -10448.597   -538.37625     300.9666 
    8060   0.95494997    -10453.95   -191.44662    292.88624 
    8070   0.95493868   -10459.536   -142.05512    298.93211 
    8080   0.95493703   -10465.693   -63.554703    297.10484 
    8090   0.95494093   -10471.977   -28.218661    289.14267 
    8100   0.95494916   -10477.868   -225.92075    293.17735 
    8110   0.95497336   -10483.529   -361.02121    295.13717 
    8120    0.9550241    -10489.46   -479.60201     301.1551 
    8130   0.95510939   -10495.893   -471.80097    300.16044 
    8140   0.95522979   -10502.629   -401.96342    294.47611 
    8150   0.95538119   -10509.055   -363.43523    290.35012 
    8160   0.95556105   -10514.812   -413.82003    291.76871 
    8170   0.95577197   -10519.747   -424.51455    292.60567 
    8180   0.95601482   -10524.177    -348.9078    292.21071 
    8190   0.95628418   -10527.939   -217.71662          294 
    8200   0.95657034   -10531.171    23.254174    291.76506 
    8210   0.95685705   -10533.842    167.47846    292.95985 
    8220    0.9571328   -10535.737     288.6715    288.59037 
    8230   0.95738961   -10536.753    275.35572    288.80791 
    8240   0.95762742    -10536.75    241.05689    290.02803 
    8250   0.95784822   -10535.607    293.03187    287.58714 
    8260   0.95804828   -10533.158    378.13595    285.50334 
    8270   0.95822267   -10529.293    292.09437    292.10562 
    8280   0.95837491   -10523.978    325.83917    294.63657 
    8290    0.9585036   -10517.695    382.11102    296.27403 
    8300    0.9586049   -10510.579    385.68933    297.00785 
    8310   0.95867794   -10502.375    442.24182    292.69246 
    8320   0.95871974    -10493.21    404.33907    292.26982 
    8330   0.95873196   -10482.876    325.93302    295.16218 
    8340   0.95872062   -10471.927    200.15646    300.86262 
    8350   0.95869338   -10461.304     221.6044    300.72006 
    8360   0.95864948   -10451.968    331.56319    298.23371 
    8370   0.95858142   -10443.812    380.48927     297.9548 
    8380   0.95848539   -10436.824    290.34798    300.62375 
    8390   0.95836844   -10431.381    38.717702    307.02989 
    8400    0.9582466   -10427.928   -54.889934    310.92291 
    8410   0.95812598   -10426.392    164.32604    307.82026 
    8420   0.95799301   -10426.489     392.4313    304.83833 
    8430   0.95783056   -10427.219     597.4539    299.57538 
    8440   0.95762496   -10428.131    592.78489    298.39961 
    8450    0.9573751   -10428.954    466.01762    300.71736 
    8460   0.95708992   -10430.128    251.89579    305.79718 
    8470   0.95678398   -10431.897    127.62143    306.39187 
    8480    0.9564658   -10434.468    238.51448    303.02727 
    8490   0.95612778   -10437.543    423.70578    300.06653 
    8500   0.95575774   -10440.552    453.78001    298.43431 
    8510   0.95535301   -10443.602    381.87932    296.85229 
    8520   0.95491796   -10446.254      403.235    290.78954 
    8530   0.95445276   -10448.236    258.94421    291.84248 
    8540    0.9539668   -10449.144    71.326295    292.70518 
    8550   0.95347334   -10449.511   -49.182055     294.2494 
    8560   0.95298082   -10449.388   -11.232904    293.35277 
    8570   0.95248821   -10448.659   -44.076954    293.60236 
    8580    0.9519971   -10447.451   -92.911288    295.23513 
    8590   0.95150998   -10446.015    1.2797201    293.70813 
    8600   0.95102153   -10443.874     88.95444    288.50354 
    8610   0.95052708   -10440.478   -39.995427    290.00021 
    8620   0.95003482   -10436.092   -278.15403    294.64156 
    8630   0.94956204   -10430.924   -513.26055    297.16914 
    8640    0.9491255   -10425.225   -635.87903    296.49334 
    8650   0.94873525   -10419.097    -768.7004     297.7214 
    8660   0.94840045   -10412.718   -825.25619    298.88186 
    8670    0.9481243   -10406.089   -655.64272    295.81456 
    8680     0.947897   -10399.177   -612.93216    292.82004 
    8690   0.94771646   -10391.731   -874.53683    299.79414 
    8700   0.94759905    -10384.05   -1029.9459    298.19706 
    8710   0.94755832   -10376.831   -1211.8976    300.86154 
    8720   0.94760506   -10370.191   -1151.8779    303.40341 
    8730   0.94773504   -10364.376   -827.44681    295.89152 
    8740   0.94792881   -10359.054   -782.11562    302.08541 
    8750   0.94817945    -10354.39   -631.94297    302.61815 
    8760   0.94847788    -10350.62   -508.19124    301.84394 
    8770   0.94881464   -10347.657   -392.47605    301.98694 
    8780    0.9491809   -10345.179   -202.22456    297.10501 
    8790   0.94956506   -10343.245   -223.43885    300.53755 
    8800   0.94996599   -10341.677   -162.89208    303.22206 
    8810    0.9503792    -10340.88    22.871487    303.05111 
    8820   0.95079185   -10340.688    209.56086    299.58402 
    8830   0.95119236    -10340.68    137.51429    298.82473 
    8840   0.95158488    -10340.95   -122.15209    308.01969 
    8850   0.95198432   -10342.224   -41.926632    307.61313 
    8860   0.95238733   -10344.385    148.53806    301.79308 
    8870   0.95278178   -10346.667      162.248    299.58408 
    8880   0.95316541   -10348.562    184.29063    294.93497 
    8890   0.95353656   -10350.296    180.34788    300.04906 
    8900    0.9538943   -10351.812    242.55394    300.97297 
    8910   0.95423578   -10353.578    189.11409    304.26861 
    8920   0.95456341    -10355.81    160.79296    303.98851 
    8930   0.95488053   -10358.225    108.74979    301.07308 
    8940   0.95518984   -10360.767    108.81601    301.83915 
    8950   0.95549127   -10363.511    185.43357     303.1259 
    8960   0.95577896   -10366.523    318.48234    304.04329 
    8970   0.95604347   -10370.033    432.14395    306.74215 
    8980   0.95627648   -10374.149    521.96492    305.93232 
    8990   0.95647307    -10378.82    447.09878     308.7097 
    9000   0.95663558   -10384.149    550.19166     302.3915 
    9010    0.9567585   -10389.255    617.50471     297.6619 
    9020   0.95683679   -10394.233    559.45719    301.56975 
    9030   0.95687303   -10398.752    630.61228    296.39667 
    9040    0.9568636   -10402.641    640.86116    292.55816 
    9050   0.95680844   -10405.842    415.85472    297.75495 
    9060   0.95672174    -10408.65    228.61487    304.73333 
    9070   0.95661687   -10411.961      206.393    303.31995 
    9080   0.95649592   -10415.478    325.19235    296.02334 
    9090   0.95635198   -10418.426    285.81567    293.02922 
    9100    0.9561874   -10420.797    79.042971    298.88247 
    9110   0.95601585   -10423.176   -66.553111    303.76128 
    9120    0.9558475   -10425.834    -14.44298    299.31732 
    9130   0.95568054   -10428.682   -9.3313537    297.59794 
    9140   0.95551379   -10431.238     21.69908    293.99354 
    9150   0.95534555   -10433.222    -8.234405    295.93043 
    9160   0.95517686   -10435.002   -58.860688    300.02193 
    9170   0.95501142   -10436.959   -94.894145    300.74315 
    9180   0.95485256   -10439.096   -120.82813    301.79765 
    9190   0.95470219   -10441.546   -91.320516    297.25348 
    9200   0.95455978   -10444.132   -253.73161    300.77855 
    9210     0.954435   -10447.058   -400.18433    303.74773 
    9220   0.95433802   -10450.651   -349.53869    300.49339 
    9230   0.95426654   -10454.356   -239.72319    292.97514 
    9240   0.95421546   -10457.564   -483.24431    297.87383 
    9250   0.95419944   -10461.164   -744.99326    305.15198 
    9260   0.95423533   -10465.423   -616.08472    300.11354 
    9270   0.95431707   -10470.307   -460.23262    301.30207 
    9280   0.95443247   -10475.492   -293.30067    297.82718 
    9290   0.95457242   -10481.275   -433.64706    301.78248 
    9300   0.95474325   -10487.674   -424.88937    301.50125 
    9310   0.95494646   -10494.454   -409.55203    299.11645 
    9320   0.95518202   -10501.867   -520.60544    298.78165 
    9330   0.95545573   -10509.324    -384.5064    292.51968 
    9340   0.95575934   -10516.224   -223.65908    291.72158 
    9350   0.95608128   -10522.621   -185.02239    296.52805 
    9360   0.95641725   -10528.614   -69.792489    292.84538 
    9370   0.95676072   -10533.923    -47.95119    288.18192 
    9380   0.95711114   -10538.189    -271.4779    292.31696 
    9390   0.95748187   -10541.682   -331.81497    295.20755 
    9400   0.95787631   -10544.662   -32.720686    290.53762 
    9410   0.95827521   -10546.887    246.08729    291.56165 
    9420   0.95865759   -10547.771    480.57957    285.07518 
    9430   0.95900833   -10547.634    412.08731    287.58313 
    9440   0.95932954    -10546.25    386.42476    287.41577 
    9450   0.95962281   -10543.419    492.53368    281.09004 
    9460   0.95988355   -10539.092    218.54039     290.7159 
    9470   0.96012839   -10533.832   -47.278293    300.56417 
    9480   0.96037592   -10528.735   -40.492165    297.47814 
    9490   0.96062767   -10523.917    27.175214    293.79071 
    9500   0.96087912   -10519.073    36.215355    295.24196 
    9510   0.96112872   -10514.385    77.654638    297.87337 
    9520     0.961374   -10510.177    39.123195    301.29116 
    9530   0.96161722   -10507.087    6.6188529    303.34964 
    9540   0.96186001   -10505.066    182.98286    294.95253 
    9550   0.96209157   -10503.599     267.3579    293.70534 
    9560   0.96230476    -10502.14    248.27184    297.35218 
    9570     0.962501   -10501.159    118.79517    299.84568 
    9580   0.96268954   -10500.491   -33.731498    302.77198 
    9590   0.96288053   -10500.584   -43.057666    302.80593 
    9600   0.96307496   -10501.011    51.784833    302.49005 
    9610   0.96326634   -10502.051    154.66206    302.15915 
    9620   0.96344726   -10503.391    249.67782    297.23872 
    9630   0.96361128   -10504.704    271.76693    296.59901 
    9640   0.96375517   -10505.546    354.69839    294.80597 
    9650    0.9638757   -10506.401     186.9069    300.53751 
    9660   0.96398203    -10507.23    135.26385    297.85874 
    9670   0.96407993   -10508.216    36.392334    298.24098 
    9680   0.96417438   -10509.192    64.896022    296.99932 
    9690   0.96426377   -10509.808     215.8526    290.96696 
    9700   0.96433988   -10510.089    90.661729    296.88578 
    9710   0.96440787   -10509.968    130.92969    296.21929 
    9720   0.96446754   -10509.497     106.1728    292.96637 
    9730   0.96452149   -10508.707   -121.26288    295.73564 
    9740   0.96458422   -10507.331   -281.78891    296.93089 
    9750   0.96466795   -10506.011   -373.83959    301.40165 
    9760   0.96477793   -10504.865   -201.04939    298.32908 
    9770   0.96490427   -10503.816   -57.064521    298.51116 
    9780   0.96503467   -10502.731    198.80663    296.91569 
    9790   0.96515133   -10501.341    433.36537    292.53491 
    9800   0.96523808   -10499.292    472.31127    289.50897 
    9810   0.96529253   -10496.467    223.75701     298.3253 
    9820   0.96532913   -10493.125    84.496372    303.63155 
    9830   0.96535989   -10490.256   -17.347988    302.71998 
    9840   0.96539263   -10487.976   -156.44733    302.70306 
    9850   0.96543627   -10485.965   -127.58157    300.96728 
    9860    0.9654886   -10484.373    75.815073    299.28413 
    9870    0.9655358   -10482.984    250.01636    296.44035 
    9880    0.9655661   -10481.191    247.89288    293.01636 
    9890   0.96557899   -10478.793    135.12846    294.22707 
    9900    0.9655818   -10475.741    13.943236      299.426 
    9910   0.96558353   -10472.717   -76.048766    305.24671 
    9920   0.96559005   -10470.328   -27.502638    306.20617 
    9930   0.96559795   -10468.571    111.35899     300.4369 
    9940   0.96559923   -10467.083    72.696803    301.08391 
    9950   0.96559479   -10465.885    68.035233    301.65472 
    9960   0.96558407   -10464.912    269.84559    298.25102 
    9970   0.96555413   -10464.468    373.56033    305.25441 
    9980   0.96549417    -10464.25     680.0416    297.17588 
    9990   0.96538612   -10464.215     677.8712    292.99141 
   10000   0.96522871   -10463.661    390.75185      296.565 
   10010   0.96503953   -10462.394    303.64913    294.50936 
   10020   0.96482638   -10460.999    230.95838    300.07129 
   10030   0.96459278   -10459.259    263.64083    300.81656 
   10040    0.9643377    -10457.92    303.82475    301.26703 
[...]
   31640   0.96215575   -10388.021    826.74201    305.87978 
   31650   0.96215639   -10384.022    852.14434     303.0836 
   31660    0.9620962   -10381.431    600.67628    309.84846 
   31670   0.96199028   -10380.013    385.22197    315.59027 
   31680   0.96185252   -10380.634    601.53816    304.85797 
   31690   0.96167083   -10382.456    699.22356    303.23336 
   31700   0.96143684   -10384.776    655.04632    302.97474 
   31710   0.96115286   -10387.419    644.98748    299.21409 
   31720   0.96082055   -10390.474    545.72003    299.68062 
   31730   0.96044678   -10393.945     333.1543    304.81518 
   31740   0.96004565   -10398.132    200.10491    304.64596 
   31750    0.9596277   -10403.219    112.57097    302.41612 
   31760   0.95919954   -10409.101    8.3010345    302.38709 
   31770   0.95876787   -10415.438    12.128942     296.0154 
   31780   0.95833282   -10421.667    118.75051    291.67103 
   31790   0.95788901   -10427.397   -45.873479    296.90259 
   31800     0.957447   -10432.898   -331.00922    300.13291 
   31810   0.95702699   -10438.484   -532.79453     301.0694 
   31820   0.95664347   -10444.756   -533.43834    303.12156 
   31830   0.95629671   -10451.286   -399.51353    300.26247 
   31840   0.95597913   -10458.127   -398.72541    299.61192 
   31850    0.9556897   -10464.906   -430.16727     301.3019 
   31860   0.95543052    -10471.72    -399.1079    297.14335 
   31870   0.95520022   -10477.493   -349.47083    289.87685 
   31880   0.95499722    -10481.96   -536.83067     290.4308 
   31890   0.95483303   -10485.096   -748.44695    296.85821 
   31900   0.95472187   -10487.836   -782.07246    299.67486 
   31910   0.95466725   -10490.153   -689.86979     297.1785 
   31920   0.95466357   -10492.034   -597.28234    294.11252 
   31930   0.95470484    -10493.22   -601.75541    292.78932 
   31940   0.95479044   -10493.763   -557.75788    294.96685 
   31950   0.95491612   -10493.821   -300.94151    292.05221 
   31960   0.95506573   -10493.244   -142.97041    291.85051 
   31970   0.95522709   -10492.096   -94.330997    293.41022 
   31980     0.955396   -10490.922   -95.540315    299.26453 
   31990   0.95557133   -10489.586    11.871976    296.48106 
   32000   0.95574764    -10488.41    41.719232    293.12975 
   32010   0.95592245   -10487.004   -49.003423    295.80946 
   32020   0.95610194   -10485.416      -199.07    298.49631 
   32030   0.95629663   -10483.989    -295.9348    296.99568 
   32040   0.95651338    -10482.64   -275.82541    293.51289 
   32050   0.95675156   -10480.909   -248.29539     295.8584 
   32060    0.9570091   -10478.946   -226.09194    295.91504 
   32070   0.95728523   -10476.771   -252.87747    294.22226 
   32080   0.95758188   -10474.411   -336.35254    296.21878 
   32090   0.95790418   -10471.908    -368.9967    302.37938 
   32100   0.95825224   -10469.613   -33.198389    295.45736 
   32110   0.95860648   -10467.419    64.742584    298.18726 
   32120   0.95895778   -10465.045    10.148884    301.38518 
   32130   0.95930908   -10463.028    61.778537     301.0267 
   32140   0.95965655   -10461.431    257.54924     301.3451 
   32150    0.9599859   -10460.057    534.65461    296.46814 
   32160   0.96027756   -10458.568    721.58842    295.77011 
   32170   0.96051657   -10456.645     905.6816    293.40004 
   32180   0.96069135   -10454.419    858.00934    292.68249 
   32190   0.96080396   -10451.224    687.38649    294.05465 
   32200   0.96086708   -10447.397    453.13042    300.05947 
   32210   0.96089557   -10443.404    402.88878     301.8552 
   32220   0.96089351   -10439.309    500.52901    297.93009 
   32230   0.96085586   -10435.109    438.10609    300.77727 
   32240   0.96078551   -10430.426    400.58461    300.10929 
   32250   0.96068629   -10425.657    287.47726    304.88656 
   32260   0.96056423   -10421.143    290.77295    306.73494 
   32270   0.96041939   -10416.743    424.58029    302.48697 
   32280   0.96024402   -10412.685    382.20895    306.67607 
   32290   0.96003908    -10408.81    395.15749    304.82558 
   32300     0.959805   -10405.322    335.95813    302.92816 
   32310     0.959546   -10401.891    181.35093    304.36039 
   32320    0.9592717    -10398.61    176.85088    305.24816 
   32330   0.95898123   -10395.328    461.00773    302.43899 
   32340   0.95865657     -10392.3    604.99115    302.28934 
   32350   0.95828831   -10389.509    419.93902    306.65797 
   32360   0.95788779   -10387.096    248.23814     305.5352 
   32370   0.95746566   -10385.152    355.14795    297.39144 
   32380   0.95701683   -10383.308    378.37111    303.33801 
   32390   0.95653715   -10381.324    509.31668    300.41348 
   32400   0.95602111   -10379.785    359.35212    301.09787 
   32410   0.95547727   -10378.303    201.14135    300.78943 
   32420   0.95491648   -10376.784    202.21078    296.08517 
   32430   0.95434099   -10375.157    54.266179    299.94488 
   32440   0.95375898   -10373.162    63.739065    298.27281 
   32450   0.95317213    -10371.05    -17.06105    295.54361 
   32460   0.95258822   -10368.715   -395.01979    300.85826 
   32470   0.95203115   -10366.006   -504.39301     298.9378 
   32480   0.95151032   -10363.541   -444.90179    298.57122 
   32490   0.95102136    -10360.87   -350.38655    296.73819 
   32500   0.95055904   -10357.921   -402.16811    297.50392 
   32510   0.95012724   -10354.644   -621.17701    304.49541 
   32520   0.94974063   -10351.774   -755.23814    307.16902 
   32530   0.94940877   -10349.799   -715.34645    306.35371 
   32540   0.94912814   -10348.764   -459.19684    299.54909 
   32550   0.94888283   -10347.942   -377.69355    298.39981 
   32560   0.94866599   -10347.351    -484.7173    302.91824 
   32570   0.94848488    -10347.07   -636.57064    304.11913 
   32580   0.94835033   -10347.741   -759.64719    306.41242 
   32590    0.9482711   -10349.519   -752.68553    306.53082 
   32600    0.9482458   -10352.116   -539.12319    297.36421 
   32610   0.94826268   -10355.197   -573.78472    298.01559 
   32620   0.94832185    -10358.68   -648.07957    300.78879 
   32630   0.94842892   -10362.684   -710.55062    305.12223 
   32640   0.94858727   -10368.128   -632.29307    305.65253 
   32650   0.94879176   -10374.671   -463.71138    300.13549 
   32660   0.94903149   -10381.855   -401.84378    296.42706 
   32670   0.94930119   -10388.863   -333.27396     291.8233 
   32680   0.94959594   -10395.462   -251.25518    291.61886 
   32690   0.94991017   -10401.219   -271.32003    292.61466 
   32700   0.95024629   -10406.682    -506.7358    297.25043 
   32710   0.95061939   -10412.067   -680.11177    297.34671 
   32720   0.95104432   -10417.722   -924.81149    302.92126 
   32730   0.95153541   -10423.465    -823.4675    296.88102 
   32740   0.95208828   -10429.256   -694.35242    296.88735 
   32750   0.95269262   -10434.831   -575.02312    300.44536 
   32760    0.9533386   -10440.345   -321.29042     296.3068 
   32770   0.95401048   -10445.789   -281.69197    298.13948 
   32780   0.95470276   -10451.041   -213.89359    298.87988 
   32790   0.95541045   -10456.279   -122.47369     300.4768 
   32800   0.95612518   -10461.285    158.52771     295.8713 
   32810   0.95682843   -10465.819    366.88862    294.16062 
   32820   0.95750391   -10469.751    494.64655     294.8071 
   32830   0.95814238   -10473.087    509.18941    296.32313 
   32840   0.95874244    -10476.13    403.63102    301.07737 
   32850   0.95931034   -10479.339    423.53608     301.1867 
   32860   0.95984474   -10482.503    625.69233    293.56788 
   32870   0.96033252   -10485.015    746.26449    287.76626 
   32880   0.96076588   -10486.435    547.59662    294.89704 
   32890    0.9611564   -10487.558    432.31329    298.77885 
   32900   0.96151188   -10488.201    637.48268    289.38535 
   32910   0.96182116   -10488.127    648.58989    288.94439 
   32920   0.96208316   -10487.195     404.7698    293.36128 
   32930   0.96231431   -10485.786    150.00886    298.31333 
   32940   0.96253181   -10484.349    111.83609    297.65509 
   32950   0.96274044    -10482.97    54.282328    300.40841 
   32960   0.96294494    -10481.91   -88.221733    301.63744 
   32970   0.96315506   -10481.264   -139.10641    300.78596 
   32980   0.96337337   -10480.974    42.006103    298.74349 
   32990   0.96358688    -10480.45    361.04179    292.10617 
   33000   0.96377494   -10479.682      445.928    293.28602 
   33010   0.96392994   -10478.341     403.9607    298.38306 
   33020   0.96405409   -10476.951    443.44036    298.75926 
   33030   0.96414488   -10475.793    554.69432    298.12606 
   33040   0.96419432   -10474.696     690.2686    295.51002 
   33050   0.96419349   -10473.412    764.67191    293.02808 
   33060   0.96413711   -10471.745     754.9102    293.03245 
   33070   0.96402565    -10469.57     717.7088    292.14232 
   33080   0.96386279    -10466.91    579.21503    290.43361 
   33090   0.96365908   -10463.501    284.35808    292.82569 
   33100    0.9634349   -10459.919    -22.90631    300.21997 
   33110   0.96321085   -10456.788   -88.562037    300.95228 
   33120   0.96299303   -10454.594   -40.766383    301.57399 
   33130   0.96277809   -10453.139    91.621839     301.9669 
   33140   0.96255731   -10452.323    181.93147     301.7268 
   33150   0.96232396    -10452.06    275.88172    294.79829 
   33160   0.96207199   -10451.665    271.79684    289.74036 
   33170   0.96180247   -10450.858   -20.040475    301.30417 
   33180   0.96153218   -10450.379   -21.737787    304.61518 
   33190   0.96126228   -10450.536    301.69026    296.16918 
   33200   0.96097224   -10450.603    495.07633    291.70764 
   33210   0.96064912   -10450.068    327.88556    295.50754 
   33220   0.96030324   -10449.364   -12.248258    302.77255 
   33230   0.95995799    -10449.06   -241.52395    305.55779 
   33240   0.95963048   -10449.398   -280.19362    303.17258 
   33250   0.95932386    -10450.84   -221.66085    305.19755 
   33260   0.95903258   -10452.626    55.132397    292.96926 
   33270   0.95874122   -10453.944   -38.427505    289.81794 
   33280   0.95845501   -10454.831   -424.64634    302.52126 
   33290   0.95819721    -10455.48   -369.10087    294.44513 
   33300   0.95796873   -10456.164   -379.11952    293.42011 
   33310   0.95776827    -10456.11   -380.63492    294.06922 
   33320   0.95759697   -10455.737    -472.0623    295.94957 
   33330   0.95746079   -10454.998   -591.38455    299.05827 
   33340   0.95736802    -10454.29   -608.68462    298.66268 
   33350   0.95732057   -10453.789   -593.75418    296.98462 
   33360   0.95731644   -10453.142   -509.38257    297.58968 
   33370    0.9573495   -10452.394   -447.36901    299.64738 
   33380   0.95741578   -10451.865   -462.68232     299.2116 
   33390   0.95751656   -10451.242      -508.84    297.21491 
   33400    0.9576544   -10450.704     -481.709    298.29352 
   33410   0.95782692   -10449.926   -290.48159     292.4124 
   33420   0.95802147   -10448.706   -180.91815    293.31264 
   33430   0.95822961   -10446.774   -190.54656    299.43247 
   33440   0.95845118   -10444.615   -145.90968    299.89721 
   33450   0.95868255   -10442.473      57.3415    297.49279 
   33460   0.95890938   -10440.018    328.17712    290.64905 
   33470   0.95911437    -10436.97    277.03171     299.2764 
   33480   0.95929636   -10433.137    446.28019    294.26234 
   33490   0.95944629   -10428.872    569.36945    291.07453 
   33500   0.95955463   -10423.583    576.13702    298.25723 
   33510    0.9596195   -10417.704    656.81093    300.25495 
   33520   0.95963583   -10411.696    738.35756    297.61817 
   33530   0.95959955   -10405.229    577.54887    298.22769 
   33540   0.95952051     -10398.7    410.91908    301.39193 
   33550   0.95941064   -10392.134    359.95052    298.39176 
   33560   0.95927536   -10385.685    208.65948    299.36711 
   33570   0.95912527   -10379.336   -27.099817    306.54068 
   33580   0.95897513   -10373.628   -44.872812    307.05456 
   33590   0.95882905   -10369.243   -151.21229     312.7909 
   33600   0.95869368   -10366.327   -264.24916    313.56841 
   33610   0.95857839   -10365.657   -407.03204    311.18808 
   33620   0.95849258   -10366.379   -435.73379    307.84515 
   33630   0.95843857   -10368.397   -355.58208    304.40711 
   33640   0.95841119   -10371.311   -330.36278    305.28301 
   33650   0.95840731   -10375.056   -246.93499    302.36985 
   33660    0.9584229    -10379.85   -268.38228    305.08281 
   33670   0.95845762   -10385.695   -246.18058    305.99595 
   33680   0.95851057    -10393.06   -214.88224    306.42355 
   33690   0.95857894   -10401.398   -97.502897      301.308 
   33700   0.95865493   -10410.333    3.5661919    299.29445 
   33710   0.95873107   -10419.658    57.214447    300.12796 
   33720   0.95880225   -10428.671    202.90443    294.91744 
   33730    0.9588591   -10436.725    294.15567     292.2145 
   33740   0.95889469   -10443.129    313.98579    287.56035 
   33750   0.95890911   -10447.713    121.22991    289.03022 
   33760   0.95891455   -10450.826   -104.25553    295.20805 
   33770   0.95892689    -10453.32   -244.09087    301.49356 
   33780   0.95895661   -10455.673   -290.79246    303.75733 
   33790   0.95900688   -10458.303   -187.03878    301.04099 
   33800   0.95907077    -10460.76    -27.35871    297.52347 
   33810   0.95913718   -10462.844    58.790179    299.29173 
   33820   0.95919801   -10464.392    257.47242    296.15534 
   33830   0.95924053   -10465.683     414.8088     290.3662 
   33840   0.95925473   -10465.867    321.88284    287.97647 
   33850    0.9592473   -10465.357   -67.170842    298.93187 
   33860   0.95924216   -10464.545   -147.40801    299.52794 
   33870   0.95924805   -10464.209   -175.58999    303.49015 
   33880   0.95926505   -10464.491   -10.863764    302.45259 
   33890   0.95928302   -10465.183    167.92559    298.40157 
   33900   0.95928952   -10465.789     232.2724    293.99037 
   33910      0.95928   -10465.874    170.68898    292.72935 
   33920   0.95925857   -10465.668    5.2491292    301.16943 
   33930   0.95923505    -10465.62    30.948652    303.20084 
   33940    0.9592085   -10466.203    180.58762    296.73257 
   33950   0.95916887   -10466.419    330.32269    287.46136 
   33960   0.95910751   -10465.921    119.45322    295.54175 
   33970   0.95903599   -10464.741   -22.631507    298.05884 
   33980   0.95896529   -10463.644   -23.553804    298.67167 
   33990   0.95889512   -10462.712    81.910604    301.85993 
   34000   0.95881806   -10462.116    254.97114    299.95434 
   34010    0.9587226   -10461.752    306.33194    299.57948 
   34020   0.95860492   -10461.514    245.08387    297.77954 
   34030   0.95846827   -10460.937    257.84444    290.67234 
   34040   0.95831378    -10459.76    64.697839    295.00108 
   34050   0.95815309   -10458.016   -64.957227    298.28774 
   34060   0.95799605   -10455.801   -119.97004    298.10106 
   34070   0.95784716   -10453.421   -187.23396    298.39844 
   34080     0.957711   -10450.693   -220.62998     298.5063 
   34090   0.95759026   -10447.525     -246.451    302.65512 
   34100   0.95748505   -10444.285   -46.204455    299.00327 
   34110   0.95738383   -10440.599    50.490744    294.84211 
   34120   0.95728023   -10436.196   -99.406821    297.83022 
   34130   0.95718297   -10430.853   -209.86237    301.21016 
   34140   0.95709998   -10424.768   -225.14426     301.3326 
   34150   0.95703302   -10418.359   -228.05318    303.03027 
   34160   0.95698193   -10412.017   -148.60336     300.2377 
   34170   0.95694169   -10405.079    -110.3964    298.27822 
   34180    0.9569111   -10397.743   -319.59142    305.39601 
   34190   0.95690322   -10390.654   -496.93069     307.9532 
   34200   0.95693197   -10384.471   -624.54298    305.08602 
   34210   0.95700713   -10379.301   -694.51721    307.61622 
   34220   0.95713285   -10374.728   -537.05538    300.27895 
   34230   0.95730127   -10370.951   -538.98706    300.77672 
   34240   0.95751134   -10367.113    -629.6304    302.88896 
   34250   0.95776981   -10363.877   -727.60209    308.45795 
   34260   0.95808306   -10361.918   -645.38136    310.47091 
   34270   0.95844505   -10361.113   -302.82283    304.33126 
   34280   0.95883456   -10361.325   -179.32935    306.70993 
   34290   0.95924034    -10362.43   -60.521313    305.97739 
   34300   0.95965482   -10364.912   -12.940007    307.96124 
   34310   0.96007281   -10368.666    154.74512    306.59111 
   34320   0.96048271   -10373.812    389.44859    302.23987 
   34330    0.9608683   -10379.574    517.65505     295.6691 
   34340   0.96122123   -10385.843    367.98471      300.732 
   34350   0.96154896   -10392.976    302.43198    301.05034 
   34360   0.96185692   -10400.833    324.83734    298.37195 
   34370   0.96214467   -10409.222    207.19784    302.54097 
   34380   0.96241941   -10418.363    86.138477    303.17692 
   34390   0.96269036   -10428.143   -29.502113    304.24245 
   34400   0.96296597   -10438.122   -86.138942    302.20897 
   34410   0.96325058   -10447.585   -82.847997    298.34448 
   34420   0.96354451   -10456.307    -125.2139    304.24248 
   34430   0.96384841   -10464.483    74.867748    301.04806 
   34440   0.96414981   -10471.204    299.38472    294.18643 
   34450   0.96443372    -10476.63    283.66036    297.04678 
   34460   0.96469924   -10480.848     265.8845    297.50322 
   34470   0.96494862   -10484.348    145.08739    301.41221 
   34480   0.96518991   -10487.563    7.6620714    302.45198 
   34490   0.96543296   -10490.598   -8.6233605    298.92405 
   34500   0.96568002   -10493.386    -103.3197    300.43033 
   34510   0.96593858   -10496.407   -329.94857    307.30987 
   34520   0.96622245   -10499.869   -235.71278     300.4149 
   34530   0.96652753   -10503.526   -84.599491    297.76135 
   34540   0.96684278   -10506.803    32.200549    298.32724 
   34550   0.96715989   -10509.933     96.45661    295.56082 
   34560   0.96747426   -10512.659    97.479678    294.97974 
   34570   0.96778538   -10514.674    130.31843    292.54792 
   34580   0.96809124   -10516.282    103.61742    296.99612 
   34590    0.9683923   -10517.743    192.51847    297.73518 
   34600   0.96868223   -10518.899    448.97814    295.64606 
   34610   0.96894282   -10519.799    690.72748    290.65317 
   34620   0.96915767   -10519.978    665.98388    291.59916 
   34630    0.9693263   -10519.434    550.77282    297.85955 
   34640    0.9694553   -10518.562    570.16352    293.36884 
   34650   0.96954511   -10517.481    467.32582    297.35491 
   34660   0.96960013   -10516.278    524.23025    299.28451 
   34670   0.96961737   -10514.954    599.64908    296.25752 
   34680   0.96959087   -10513.497     626.0784    296.80587 
   34690   0.96951776   -10511.787    600.91102    299.92977 
   34700   0.96939857   -10510.023    535.14161    297.54243 
   34710   0.96923897   -10508.221    284.15776    303.14953 
   34720   0.96905438   -10506.651    166.11221    304.26659 
   34730   0.96885417   -10505.728    120.96026    303.08602 
   34740   0.96864106   -10505.367    103.78417    304.32298 
   34750   0.96841624   -10505.767    107.82269    306.83115 
   34760   0.96817819   -10507.414     223.6775    306.91105 
   34770   0.96791798   -10510.145    464.35195    294.62008 
   34780   0.96762152   -10513.113    334.50152    292.86503 
   34790   0.96729433   -10516.013    188.45929    295.15191 
   34800   0.96694747   -10519.034   -7.3400465    297.83506 
   34810   0.96659432   -10522.405   -201.25116      298.227 
   34820   0.96624907    -10525.96   -312.30531    292.58008 
   34830   0.96592028   -10529.586   -409.05668     294.8088 
   34840   0.96561458   -10533.173   -438.13313    295.07111 
   34850    0.9653349   -10536.845   -458.35258    295.12292 
