ITEM: TIMESTEP
0
ITEM: NUMBER OF ATOMS
3000
ITEM: BOX BOUNDS pp pp pp
-2.4217833300286351e-01 3.1242178333002862e+01
-2.4217833300286351e-01 3.1242178333002862e+01
-2.4217833300286351e-01 3.1242178333002862e+01
ITEM: ATOMS id type xs ys zs
603 1 0.118391 0.101612 0.248585
333 1 0.0246982 0.246091 0.12388
633 1 0.0483666 0.149244 0.208754
36 1 0.156485 0.11634 0.112939
336 1 0.0818814 0.178589 0.122819
666 1 0.127299 0.20292 0.247839
601 2 0.0883126 0.109505 0.255052
631 2 0.0274842 0.173162 0.207956
34 2 0.187796 0.113843 0.117648
334 2 0.102146 0.164283 0.142655
602 1 0.0831275 0.106769 0.286268
632 1 0.016607 0.178701 0.237279
5 1 0.141639 0.0322597 0.10095
4 2 0.116447 0.0501608 0.0936202
335 1 0.122637 0.18568 0.154105
337 2 0.161685 0.237783 0.179955
664 2 0.129489 0.208508 0.279028
665 1 0.154505 0.19291 0.290847
339 1 0.177745 0.210844 0.184976
304 2 0.158457 0.0225274 0.261273
332 1 0.0251367 0.232465 0.173922
2736 1 0.0969372 0.101448 0.0446545
2734 2 0.0963717 0.123165 0.0214844
6 1 0.100445 0.0572738 0.120118
66 1 0.134808 0.185465 0.0260415
873 1 0.0559713 0.0529561 0.176944
871 2 0.0813709 0.0348676 0.182984
2702 1 0.0514277 0.0485693 0.0573129
92 1 0.058859 0.18488 0.0459044
35 1 0.195303 0.0834531 0.123027
305 1 0.152511 0.0433618 0.284498
637 2 0.194365 0.138547 0.216577
1200 1 0.0242689 0.0147686 0.313722
2701 2 0.034499 0.0420196 0.0312489
2704 2 0.197576 0.0901059 0.0126896
30 1 0.0133255 0.100373 0.0943506
28 2 0.0263269 0.0934345 0.122487
29 1 0.017251 0.115013 0.143953
629 1 0.0018792 0.0932722 0.234806
2703 1 0.0178359 0.0676799 0.0227224
93 1 0.0573919 0.236711 0.0471313
64 2 0.156391 0.207604 0.0187727
91 2 0.0595808 0.210404 0.0647938
872 1 0.0970283 0.0466155 0.207996
634 2 0.170187 0.0974219 0.331117
2975 1 0.146184 0.0152681 0.00181909
2706 1 0.178418 0.113694 0.0219295
636 1 0.176567 0.127071 0.321681
932 1 0.079017 0.203493 0.333104
2705 1 0.225897 0.0933678 0.0266935
1147 2 0.394513 0.00221571 0.287546
364 2 0.276156 0.212757 0.162307
365 1 0.301886 0.194415 0.159094
2738 1 0.228178 0.153875 0.0856313
366 1 0.254453 0.204436 0.140661
309 1 0.295261 0.114116 0.0512027
639 1 0.208346 0.116611 0.234803
342 1 0.371385 0.149319 0.158525
642 1 0.302004 0.0769071 0.199736
307 2 0.29257 0.0826747 0.0548138
607 2 0.249246 0.0730918 0.269452
610 2 0.372761 0.0570777 0.104013
340 2 0.353131 0.16167 0.135654
640 2 0.284901 0.0595483 0.179365
308 1 0.317763 0.0716491 0.0707055
638 1 0.203501 0.134634 0.18641
611 1 0.382661 0.061456 0.133873
341 1 0.363935 0.152327 0.107285
641 1 0.296046 0.0637497 0.149921
910 2 0.326046 0.154645 0.279905
71 1 0.330081 0.195331 0.0120392
2739 1 0.22498 0.194961 0.0541384
2737 2 0.24378 0.179073 0.0742119
912 1 0.299241 0.138256 0.284565
615 1 0.392294 0.0693549 0.307135
312 1 0.379363 0.0275767 0.00742688
945 1 0.378945 0.0658578 0.221613
943 2 0.380989 0.0886725 0.19961
609 1 0.262409 0.0690326 0.298071
574 2 0.215114 0.0102303 0.0824994
608 1 0.223862 0.0541999 0.266698
70 2 0.338581 0.166903 0.0233729
372 1 0.358653 0.193156 0.237155
370 2 0.371516 0.217417 0.221193
371 1 0.353824 0.243451 0.225441
911 1 0.350773 0.137711 0.290424
612 1 0.39416 0.0397306 0.0882019
72 1 0.366704 0.169291 0.0379394
938 1 0.245204 0.205486 0.300334
669 1 0.263366 0.234447 0.229041
974 1 0.332492 0.237223 0.299914
937 2 0.232817 0.192367 0.326474
575 1 0.237796 0.0324402 0.0814784
644 1 0.46747 0.00940406 0.16127
314 1 0.464905 0.00602523 0.0399125
42 1 0.418168 0.111996 0.0723384
613 2 0.402342 0.0972209 0.318595
944 1 0.409269 0.102968 0.201778
374 1 0.41407 0.220761 0.15198
41 1 0.446521 0.154 0.0612997
345 1 0.487528 0.116741 0.157427
40 2 0.417594 0.141017 0.0594439
315 1 0.466682 0.0567819 0.0293896
45 1 0.533357 0.173506 0.0655802
645 1 0.465319 0.0330409 0.115153
675 1 0.493138 0.143332 0.2556
648 1 0.570795 0.0709196 0.0975977
313 2 0.466644 0.0350936 0.0525938
43 2 0.511335 0.175027 0.0884164
343 2 0.465024 0.135997 0.1689
643 2 0.4673 0.037539 0.146532
316 2 0.598242 0.022058 0.0625017
346 2 0.548552 0.21222 0.17109
646 2 0.561592 0.0799551 0.126623
44 1 0.510902 0.204283 0.100774
344 1 0.47716 0.165015 0.173309
317 1 0.585195 0.0335707 0.0359301
647 1 0.542576 0.0577753 0.139083
673 2 0.489246 0.163007 0.280229
620 1 0.569193 0.119497 0.193707
621 1 0.585353 0.120598 0.242979
619 2 0.562134 0.111079 0.223509
674 1 0.478542 0.191034 0.269801
616 2 0.47687 0.0613936 0.247517
618 1 0.49947 0.0757489 0.23043
348 1 0.56593 0.231557 0.152844
347 1 0.548907 0.222775 0.201044
373 2 0.435285 0.235372 0.133399
617 1 0.468252 0.0344185 0.233133
48 1 0.585801 0.149531 0.102813
651 1 0.597599 0.205966 0.260905
318 1 0.577814 0.00223993 0.0765998
1185 1 0.527563 0.0114565 0.323388
888 1 0.572756 0.0498026 0.232584
75 1 0.481142 0.22732 0.0121479
375 1 0.427891 0.230357 0.102919
708 1 0.434799 0.234369 0.233884
706 2 0.46522 0.240664 0.22727
707 1 0.471207 0.233299 0.19696
2747 1 0.507917 0.138044 0.00368193
886 2 0.572862 0.0185001 0.227203
614 1 0.431297 0.103544 0.307175
887 1 0.559542 0.00348208 0.251818
589 2 0.651618 0.00892452 0.168554
593 1 0.742551 0.00419237 0.0904105
624 1 0.737264 0.0144073 0.221786
2720 1 0.655662 0.0258045 0.0198402
23 1 0.738711 0.0696688 0.0344976
47 1 0.626411 0.165353 0.074696
590 1 0.625051 0.0167078 0.184125
321 1 0.641066 0.122195 0.16216
46 2 0.616873 0.156072 0.103535
350 1 0.640575 0.206839 0.156672
21 1 0.67455 0.0522416 0.119428
51 1 0.690676 0.154799 0.114753
351 1 0.686879 0.222153 0.13902
354 1 0.744721 0.158486 0.259286
19 2 0.690201 0.0640678 0.0944483
319 2 0.661892 0.119994 0.18604
49 2 0.716612 0.169952 0.104433
349 2 0.66414 0.227793 0.160467
649 2 0.615263 0.180101 0.266172
22 2 0.760711 0.079073 0.0136088
322 2 0.793233 0.0898888 0.126335
622 2 0.722754 0.0405858 0.232416
352 2 0.747129 0.157598 0.227628
20 1 0.669878 0.0688351 0.07051
320 1 0.646546 0.122499 0.213735
50 1 0.735779 0.149325 0.0897367
650 1 0.646023 0.188 0.265645
353 1 0.724192 0.139094 0.215782
623 1 0.701051 0.0500059 0.211225
380 1 0.727957 0.197394 0.0366874
654 1 0.767635 0.0759153 0.261426
56 1 0.792217 0.149761 0.0227991
1186 2 0.637218 0.0715148 0.282007
379 2 0.721894 0.223001 0.0189015
957 1 0.787308 0.134954 0.331753
1188 1 0.661556 0.0543267 0.271006
324 1 0.766345 0.0939459 0.142749
652 2 0.791304 0.0825062 0.281555
386 1 0.793728 0.237391 0.195375
1190 1 0.747148 0.0707742 0.330975
681 1 0.693627 0.24442 0.329248
679 2 0.70405 0.227868 0.304225
680 1 0.726893 0.207861 0.313537
2716 2 0.645331 0.111865 0.0134214
381 1 0.749266 0.236068 0.0094782
414 1 0.740028 0.247245 0.100631
387 1 0.751407 0.234385 0.22521
1187 1 0.613513 0.0521233 0.290426
1488 1 0.680055 0.00450794 0.332098
31 2 0.989309 0.13294 0.0292797
32 1 0.9642 0.118816 0.0159071
625 2 0.880786 0.0098038 0.260546
329 1 0.886816 0.0354869 0.157456
33 1 0.999442 0.156488 0.0105272
959 1 0.868745 0.163009 0.322097
330 1 0.896682 0.0843846 0.14325
960 1 0.874109 0.134958 0.278802
328 2 0.893558 0.0646892 0.167972
323 1 0.817163 0.08425 0.146444
653 1 0.819133 0.0762313 0.267592
357 1 0.80862 0.180568 0.118912
658 2 0.997389 0.144006 0.295001
659 1 0.968607 0.151249 0.28369
327 1 0.894171 0.107911 0.0530828
355 2 0.811006 0.19249 0.148254
688 2 0.929045 0.223712 0.292926
57 1 0.813217 0.196667 0.0298014
657 1 0.880504 0.175989 0.208306
87 1 0.887534 0.195167 0.0835311
360 1 0.932146 0.145938 0.12375
325 2 0.881191 0.124972 0.0765195
55 2 0.802035 0.170807 0.0444668
655 2 0.861802 0.152403 0.218444
628 2 0.984328 0.0773922 0.213626
358 2 0.952294 0.14972 0.14801
326 1 0.849921 0.127618 0.0716222
356 1 0.800755 0.171003 0.169278
656 1 0.866836 0.126535 0.200717
359 1 0.951116 0.179794 0.158159
85 2 0.893958 0.220804 0.101146
388 2 0.923384 0.230288 0.192409
86 1 0.884943 0.215565 0.131148
690 1 0.902908 0.239951 0.285055
630 1 0.967813 0.0980024 0.195983
626 1 0.897608 0.0316273 0.244749
2728 2 0.93072 0.0628394 0.010498
389 1 0.91999 0.229494 0.223979
689 1 0.932577 0.223989 0.32449
1256 1 0.821003 0.056625 0.32835
303 1 0.99091 0.0104332 0.199656
2729 1 0.940928 0.0345781 0.020789
958 2 0.875974 0.134336 0.310503
660 1 0.994359 0.129013 0.322837
62 1 0.954808 0.242322 0.0762222
930 1 0.920888 0.026702 0.31241
27 1 0.857954 0.0332326 0.0726491
25 2 0.876234 0.0151701 0.0913142
363 1 0.157289 0.266558 0.110398
331 2 0.0255187 0.256964 0.153712
338 1 0.180512 0.262626 0.186053
361 2 0.144212 0.290115 0.0935783
362 1 0.115635 0.297082 0.105562
158 1 0.198062 0.459563 0.0723657
752 1 0.0815693 0.466152 0.225991
154 2 0.0907233 0.478815 0.00980959
156 1 0.117747 0.479496 0.0264844
155 1 0.0682098 0.49483 0.025477
125 1 0.157949 0.360807 0.00528969
753 1 0.126177 0.492578 0.227392
157 2 0.175769 0.480382 0.0635117
122 1 0.0446679 0.312751 0.0077672
695 1 0.168498 0.455983 0.168039
423 1 0.0310039 0.422961 0.0868563
963 1 0.0448454 0.270631 0.289222
421 2 0.0421567 0.397713 0.0711413
663 1 0.13244 0.289044 0.26429
662 1 0.10986 0.335643 0.261322
393 1 0.142538 0.398229 0.0947939
693 1 0.0647527 0.386678 0.195712
396 1 0.0669037 0.30906 0.174482
126 1 0.150563 0.348136 0.0550393
661 2 0.105255 0.304358 0.25835
391 2 0.13878 0.406333 0.125274
691 2 0.0518851 0.415627 0.197996
394 2 0.0930863 0.326422 0.169811
694 2 0.181837 0.466538 0.194863
124 2 0.138303 0.363515 0.0300995
692 1 0.0210679 0.412975 0.205212
395 1 0.118482 0.307354 0.169299
751 2 0.0956811 0.492686 0.236269
422 1 0.058593 0.407449 0.0457667
699 1 0.167007 0.411592 0.245777
697 2 0.150344 0.387013 0.257047
398 1 0.179469 0.338306 0.205332
392 1 0.108765 0.400809 0.134074
993 1 0.0478146 0.352459 0.293776
992 1 0.0704578 0.399115 0.294572
991 2 0.043115 0.383635 0.28993
455 1 0.0767926 0.473404 0.135996
425 1 0.199124 0.382477 0.109612
698 1 0.145333 0.390994 0.288157
2529 1 0.196888 0.463817 0.0057386
454 2 0.0593278 0.486874 0.113141
123 1 0.0912143 0.313869 0.0306213
961 2 0.0173534 0.275477 0.304372
121 2 0.0669132 0.295244 0.0221714
1025 1 0.0919413 0.475217 0.313595
159 1 0.167749 0.498502 0.0883346
998 1 0.193462 0.445558 0.330993
399 1 0.22902 0.353625 0.204941
728 1 0.29553 0.496882 0.25303
2802 1 0.337521 0.387044 0.0129923
1031 1 0.342443 0.430128 0.329943
397 2 0.208008 0.333462 0.192262
429 1 0.295998 0.42982 0.154644
128 1 0.326233 0.457795 0.0781328
667 2 0.269557 0.252803 0.254212
973 2 0.356106 0.254106 0.312803
668 1 0.282244 0.280234 0.244446
428 1 0.293982 0.470291 0.18702
696 1 0.213402 0.463637 0.192844
2831 1 0.309511 0.46594 0.00676955
2801 1 0.354115 0.338782 0.0222453
2800 2 0.361629 0.369588 0.0240789
94 2 0.236885 0.290714 0.0478786
424 2 0.223372 0.387486 0.0897179
95 1 0.235201 0.321182 0.0566921
969 1 0.222781 0.332515 0.285202
1062 1 0.376917 0.492083 0.297541
96 1 0.239578 0.272367 0.0736653
967 2 0.205739 0.309901 0.29959
127 2 0.295845 0.452994 0.0702364
968 1 0.221613 0.282411 0.298555
427 2 0.27667 0.449751 0.170072
426 1 0.243956 0.407704 0.102996
369 1 0.313582 0.254832 0.133384
367 2 0.329969 0.280363 0.12398
368 1 0.340245 0.296319 0.149448
99 1 0.329536 0.384425 0.104408
102 1 0.36095 0.27245 0.0657145
402 1 0.346064 0.343617 0.204539
702 1 0.296212 0.37668 0.262198
732 1 0.372226 0.43153 0.225814
97 2 0.346519 0.376677 0.130106
100 2 0.365994 0.259106 0.0373366
400 2 0.345227 0.314634 0.217506
700 2 0.268183 0.384562 0.249508
130 2 0.39592 0.453868 0.0858775
98 1 0.375903 0.36845 0.12129
671 1 0.332578 0.311092 0.32596
101 1 0.397192 0.25512 0.0329069
401 1 0.370702 0.310589 0.236039
701 1 0.271244 0.411519 0.232993
729 1 0.288985 0.477866 0.300839
997 2 0.206551 0.416648 0.33229
129 1 0.283199 0.480191 0.0597844
730 2 0.361366 0.424715 0.254873
731 1 0.375506 0.398353 0.265547
727 2 0.274069 0.487893 0.274651
2808 1 0.547716 0.416778 0.00275972
73 2 0.468153 0.253682 0.0241933
678 1 0.567166 0.256263 0.292323
676 2 0.566848 0.259052 0.260686
677 1 0.576903 0.28805 0.252512
977 1 0.503417 0.252593 0.319984
131 1 0.420269 0.433475 0.0860274
432 1 0.426413 0.412729 0.188096
737 1 0.588414 0.364246 0.315119
430 2 0.428106 0.44421 0.184236
431 1 0.442523 0.450739 0.156698
132 1 0.403801 0.479643 0.0690733
703 2 0.44165 0.343985 0.161332
1003 2 0.424505 0.356391 0.264688
1004 1 0.433112 0.362182 0.294708
762 1 0.481781 0.442088 0.281349
134 1 0.515556 0.47013 0.0507169
705 1 0.457679 0.349669 0.134507
1005 1 0.450187 0.348894 0.24757
761 1 0.459922 0.458069 0.237112
760 2 0.478096 0.466747 0.261673
135 1 0.52544 0.470563 0.101631
133 2 0.509208 0.484648 0.0782443
704 1 0.439092 0.312628 0.165693
77 1 0.51741 0.277411 0.104038
78 1 0.561494 0.285684 0.0779941
405 1 0.485114 0.359201 0.0443414
735 1 0.531405 0.451295 0.19669
408 1 0.56293 0.332371 0.157511
403 2 0.464238 0.370361 0.065518
733 2 0.539022 0.439162 0.168342
76 2 0.546884 0.289086 0.10599
406 2 0.580683 0.34864 0.178223
404 1 0.437448 0.378663 0.0506117
734 1 0.567695 0.4256 0.16999
107 1 0.540555 0.384297 0.0822462
1008 1 0.549723 0.36941 0.234864
1006 2 0.532699 0.372163 0.261536
1007 1 0.544841 0.395375 0.279497
108 1 0.576372 0.400121 0.116258
106 2 0.571144 0.391979 0.0860065
978 1 0.47895 0.279874 0.283279
976 2 0.484195 0.277275 0.314497
74 1 0.469102 0.276832 0.00246717
2776 2 0.532181 0.345321 0.00597615
2778 1 0.556987 0.327212 0.0140716
765 1 0.566608 0.497615 0.312636
444 1 0.746624 0.481936 0.218666
714 1 0.781308 0.398892 0.282204
713 1 0.788516 0.450186 0.279537
114 1 0.760684 0.407588 0.0978297
137 1 0.606182 0.459137 0.0405699
80 1 0.604272 0.256751 0.00697384
79 2 0.603559 0.276625 0.0317394
81 1 0.633159 0.281761 0.042047
138 1 0.625184 0.478184 0.0849123
712 2 0.780248 0.424273 0.263138
385 2 0.770653 0.254105 0.209413
1044 1 0.665208 0.427842 0.321788
143 1 0.726335 0.477529 0.0657106
437 1 0.61296 0.47213 0.247919
436 2 0.615173 0.442613 0.236401
438 1 0.638616 0.427177 0.251268
407 1 0.611425 0.344263 0.171545
736 2 0.615501 0.377677 0.324851
136 2 0.616929 0.485271 0.0550722
743 1 0.722093 0.390217 0.247551
84 1 0.779168 0.34146 0.0395811
378 1 0.676515 0.369214 0.139635
742 2 0.696077 0.38477 0.230164
1010 1 0.745234 0.298559 0.296801
744 1 0.685834 0.355169 0.235425
1009 2 0.761345 0.319381 0.279034
1011 1 0.760777 0.310064 0.248674
376 2 0.670617 0.338218 0.143284
745 2 0.784774 0.49881 0.322318
110 1 0.621007 0.36443 0.053298
111 1 0.670809 0.377678 0.0591652
377 1 0.697922 0.322037 0.142117
144 1 0.744854 0.468265 0.018157
411 1 0.641061 0.433309 0.175067
711 1 0.664339 0.278262 0.2106
109 2 0.648753 0.36829 0.0383278
409 2 0.64996 0.438601 0.14504
709 2 0.667346 0.294284 0.23786
82 2 0.750985 0.326894 0.0380358
112 2 0.741598 0.420118 0.11991
412 2 0.749554 0.272768 0.116961
410 1 0.680931 0.4456 0.144254
710 1 0.670418 0.27377 0.261913
413 1 0.755208 0.26454 0.147113
113 1 0.759079 0.430832 0.144168
83 1 0.745964 0.310676 0.0648796
142 2 0.733012 0.490502 0.0374983
1042 2 0.694119 0.440986 0.322211
746 1 0.75509 0.489949 0.329334
416 1 0.783254 0.322209 0.19524
442 2 0.715061 0.48432 0.221299
417 1 0.777124 0.371741 0.18113
443 1 0.703776 0.458937 0.2367
415 2 0.798075 0.349965 0.190912
450 1 0.95307 0.437008 0.225587
984 1 0.827174 0.271068 0.25393
1020 1 0.980553 0.413394 0.303867
1015 2 0.857255 0.395527 0.33141
382 2 0.834766 0.30322 0.0949514
384 1 0.853799 0.277854 0.0967281
390 1 0.937423 0.257495 0.183952
448 2 0.954843 0.411839 0.206295
718 2 0.976452 0.307735 0.227324
89 1 0.976777 0.353575 0.156385
720 1 0.993496 0.302656 0.25364
719 1 0.995016 0.304066 0.201815
1017 1 0.856945 0.372816 0.309207
88 2 0.970418 0.345332 0.126378
962 1 0.997705 0.251179 0.298684
983 1 0.830764 0.267676 0.305561
2786 1 0.885585 0.336594 0.0258067
780 1 0.901254 0.46331 0.272773
449 1 0.936156 0.388669 0.217375
90 1 0.993844 0.355404 0.107441
982 2 0.846761 0.265195 0.278234
117 1 0.909854 0.375503 0.119376
116 1 0.859941 0.365166 0.128962
1016 1 0.864651 0.423349 0.317992
446 1 0.936316 0.484293 0.138272
153 1 0.975802 0.481719 0.0286175
778 2 0.881116 0.483454 0.286825
1018 2 0.956513 0.426931 0.319604
383 1 0.804528 0.293664 0.0931845
150 1 0.96011 0.386536 0.0368439
447 1 0.957998 0.437498 0.143777
63 1 0.978145 0.288404 0.0809112
445 2 0.952456 0.461286 0.123473
420 1 0.854439 0.374567 0.230911
750 1 0.844719 0.433978 0.163076
148 2 0.938053 0.409388 0.0371623
149 1 0.934864 0.420613 0.0667029
146 1 0.845372 0.40752 0.0753839
115 2 0.881314 0.388304 0.124892
61 2 0.974911 0.262726 0.0624985
145 2 0.820499 0.409044 0.0556902
418 2 0.883083 0.367625 0.242749
419 1 0.891119 0.33806 0.234371
749 1 0.838813 0.48013 0.185994
748 2 0.823905 0.456828 0.170387
147 1 0.82683 0.429465 0.0322014
1503 1 0.134626 0.137233 0.612929
1233 1 0.115018 0.244248 0.443022
1533 1 0.0596434 0.174341 0.579108
1206 1 0.0717887 0.0592327 0.486029
936 1 0.137427 0.184147 0.400371
901 2 0.0741517 0.0993379 0.357386
1501 2 0.127802 0.109665 0.598707
1231 2 0.114668 0.23367 0.472968
1531 2 0.0575786 0.166433 0.548415
1204 2 0.0469361 0.0783514 0.480966
934 2 0.15615 0.159297 0.406755
902 1 0.0441823 0.105768 0.365711
1502 1 0.149861 0.0881032 0.606276
1232 1 0.139786 0.214852 0.477843
1532 1 0.0804217 0.181288 0.532096
1205 1 0.0489021 0.103578 0.500163
935 1 0.174481 0.166014 0.431808
1537 2 0.144996 0.141607 0.505376
1538 1 0.169003 0.126284 0.491316
1539 1 0.137501 0.126907 0.532515
1836 1 0.143766 0.20785 0.623728
1528 2 0.00703694 0.0765411 0.588552
1834 2 0.160107 0.188004 0.642381
1475 1 0.0998271 0.0607744 0.42649
1476 1 0.137853 0.0876151 0.449376
1474 2 0.13075 0.0608951 0.433743
1773 1 0.117941 0.0279649 0.547401
1529 1 0.0371143 0.082736 0.580441
1556 1 0.0413034 0.196106 0.438689
933 1 0.0631141 0.226081 0.377001
1504 2 0.19619 0.0469132 0.535127
903 1 0.0940419 0.1158 0.375884
1505 1 0.194454 0.0221217 0.515349
635 1 0.160657 0.0977737 0.361414
1835 1 0.178759 0.204751 0.661886
605 1 0.131971 0.0133527 0.366074
2076 1 0.126939 0.0380685 0.645964
1535 1 0.024661 0.151949 0.651187
1557 1 0.0348949 0.176859 0.486424
1555 2 0.0201659 0.190205 0.46165
1236 1 0.135427 0.231778 0.545215
931 2 0.0717922 0.198602 0.363644
1534 2 0.0330274 0.181705 0.643882
2074 2 0.104919 0.0171835 0.655332
606 1 0.0884158 0.00707349 0.338621
1771 2 0.105768 0.000655705 0.536686
1804 2 0.2034 0.0464577 0.641306
1777 2 0.305252 0.0366451 0.557795
1506 1 0.210478 0.037993 0.562055
939 1 0.248474 0.202878 0.352032
1266 1 0.218037 0.199121 0.505764
1209 1 0.221896 0.0895104 0.428197
1264 2 0.215988 0.208073 0.475359
908 1 0.302162 0.0837763 0.372595
1779 1 0.335888 0.0445736 0.560513
1208 1 0.229839 0.0747828 0.477291
941 1 0.251756 0.179459 0.424367
1509 1 0.226364 0.122728 0.553014
1239 1 0.318738 0.1147 0.474409
1269 1 0.325437 0.247094 0.543844
907 2 0.274962 0.0919388 0.358369
1207 2 0.229756 0.0994752 0.457313
1507 2 0.25317 0.134537 0.565293
1237 2 0.338744 0.121322 0.498173
940 2 0.278609 0.176744 0.407623
1240 2 0.388668 0.0355139 0.496509
1540 2 0.38323 0.225694 0.579174
1508 1 0.269945 0.148762 0.542378
1238 1 0.327547 0.108948 0.525198
1541 1 0.397929 0.215011 0.553124
909 1 0.268952 0.122643 0.363842
1265 1 0.211817 0.239523 0.47384
942 1 0.301978 0.192278 0.422502
1242 1 0.399392 0.0652728 0.499376
914 1 0.341364 0.151812 0.381755
915 1 0.385253 0.126501 0.370654
913 2 0.363817 0.13254 0.3933
904 2 0.212939 0.0156276 0.383922
1567 2 0.232296 0.228444 0.58383
1568 1 0.204254 0.241848 0.577289
1267 2 0.312888 0.245718 0.514699
1809 1 0.291686 0.107512 0.639641
1179 1 0.380894 0.0490439 0.392932
1839 1 0.282481 0.176121 0.613943
1807 2 0.294337 0.0762056 0.644296
906 1 0.207246 0.0341373 0.358746
975 1 0.357797 0.24791 0.343909
1210 2 0.276696 0.00103194 0.458238
1838 1 0.33142 0.191747 0.606808
1178 1 0.367122 0.0156583 0.43016
1778 1 0.301527 0.00602878 0.565383
1569 1 0.247619 0.245961 0.605444
1211 1 0.300591 0.00863163 0.438743
1808 1 0.292436 0.0611545 0.616392
1810 2 0.388852 0.0328424 0.625768
1837 2 0.310637 0.180435 0.627995
1841 1 0.355818 0.139293 0.65589
1811 1 0.395717 0.0147227 0.600601
1806 1 0.206848 0.0172581 0.653319
1177 2 0.360273 0.0262804 0.401021
1842 1 0.383739 0.0960327 0.662143
1805 1 0.224201 0.0661033 0.655097
1278 1 0.575582 0.205903 0.361993
1512 1 0.429473 0.0815669 0.573158
1510 2 0.416613 0.110424 0.569886
1511 1 0.433971 0.131633 0.585938
1184 1 0.548574 0.0308916 0.366642
1213 2 0.475363 0.0322195 0.551151
1786 2 0.530557 0.0042063 0.47204
1180 2 0.461757 0.0255852 0.367454
1844 1 0.504069 0.0781568 0.638128
918 1 0.419851 0.0998736 0.434631
1215 1 0.498533 0.0231177 0.570877
916 2 0.448253 0.0892977 0.444131
917 1 0.452471 0.059558 0.433808
1217 1 0.525993 0.116357 0.52798
1245 1 0.404422 0.154304 0.510674
1218 1 0.499629 0.108775 0.483962
1248 1 0.530856 0.168204 0.456143
1243 2 0.41244 0.181536 0.496427
1543 2 0.461756 0.164705 0.630466
1216 2 0.528367 0.114117 0.496386
1246 2 0.524503 0.198642 0.449664
1546 2 0.489959 0.223975 0.543737
1846 2 0.547908 0.114126 0.606005
1244 1 0.407194 0.17909 0.465198
1544 1 0.433474 0.158168 0.643359
1247 1 0.496529 0.200678 0.434758
1547 1 0.487133 0.210921 0.572554
1220 1 0.589105 0.0917028 0.511937
1848 1 0.552449 0.144724 0.613212
1847 1 0.575783 0.100683 0.59886
921 1 0.587479 0.0904953 0.407725
919 2 0.586176 0.0603771 0.417725
1843 2 0.487681 0.0633031 0.660923
1548 1 0.482148 0.202571 0.521608
1276 2 0.57617 0.237005 0.355578
946 2 0.525685 0.124899 0.364694
948 1 0.498838 0.117674 0.380052
1850 1 0.5593 0.231123 0.589729
1849 2 0.564673 0.210667 0.613425
1250 1 0.58691 0.200028 0.485163
1851 1 0.556336 0.224006 0.641019
1214 1 0.483716 0.0255877 0.521233
1183 2 0.554618 0.0154915 0.339529
1812 1 0.410251 0.0276989 0.648669
1788 1 0.533479 0.0335961 0.460357
1241 1 0.40343 0.0168671 0.517561
1545 1 0.48481 0.155124 0.650101
1274 1 0.408732 0.208926 0.395921
1275 1 0.451301 0.223052 0.369873
1273 2 0.43889 0.201342 0.389456
1575 1 0.458443 0.234129 0.626931
1182 1 0.445254 0.0200714 0.340882
947 1 0.518871 0.142598 0.339216
684 1 0.621807 0.137536 0.337617
1492 2 0.658919 0.00615522 0.471277
1524 1 0.727396 0.0134493 0.534163
1219 2 0.61838 0.0938651 0.524066
1463 1 0.746463 0.00435034 0.38226
920 1 0.615517 0.0501033 0.424232
1221 1 0.627687 0.0653155 0.534416
1518 1 0.659412 0.143468 0.55752
1490 1 0.677097 0.120313 0.460865
1516 2 0.681559 0.149986 0.579334
1517 1 0.673055 0.137289 0.607177
1489 2 0.69865 0.0985664 0.452417
951 1 0.662294 0.209684 0.456528
1521 1 0.742834 0.136476 0.554869
1251 1 0.607311 0.234429 0.518186
1519 2 0.770377 0.13422 0.539214
949 2 0.680941 0.199641 0.432859
1249 2 0.611852 0.206517 0.503727
952 2 0.776949 0.159789 0.44046
1520 1 0.788796 0.112496 0.553271
1223 1 0.786598 0.0487005 0.474706
953 1 0.751994 0.172465 0.425448
1852 2 0.720849 0.221403 0.636819
954 1 0.767498 0.147471 0.468168
1819 2 0.62181 0.0581226 0.655689
1579 2 0.703716 0.234815 0.529036
1822 2 0.738879 0.00535555 0.642426
1816 2 0.666469 0.0139706 0.566645
1224 1 0.787025 0.0853104 0.437968
1581 1 0.702556 0.203616 0.534874
1491 1 0.688127 0.0696373 0.46024
1853 1 0.716563 0.201319 0.612589
1583 1 0.794295 0.205781 0.620889
1580 1 0.679125 0.249145 0.543134
950 1 0.663011 0.187007 0.409887
1817 1 0.665112 0.0333373 0.591782
1584 1 0.792267 0.179588 0.576168
1854 1 0.692648 0.231905 0.646979
1494 1 0.653491 0.00112112 0.502164
1191 1 0.721742 0.102915 0.362781
1821 1 0.600244 0.0352289 0.660114
2156 1 0.743035 0.0847521 0.638419
955 2 0.77087 0.161122 0.339089
1283 1 0.758057 0.24326 0.492819
683 1 0.650808 0.110921 0.371391
682 2 0.635598 0.138319 0.366218
1487 1 0.639312 0.0115013 0.363423
1522 2 0.751769 0.00679036 0.514917
2155 2 0.755031 0.112558 0.647996
1189 2 0.720683 0.0747837 0.348074
1824 1 0.752711 0.0193118 0.617471
956 1 0.788914 0.180337 0.356811
1530 1 0.998632 0.0481199 0.577132
1257 1 0.866751 0.0652662 0.351211
924 1 0.865114 0.17809 0.534986
1284 1 0.804732 0.22348 0.48185
1222 2 0.804213 0.0628074 0.452356
923 1 0.833091 0.165514 0.496172
928 2 0.941185 0.0235364 0.336634
1203 1 0.996887 0.0983658 0.421421
1201 2 0.988411 0.109629 0.392959
1799 1 0.901145 0.100493 0.539036
1202 1 0.956899 0.113501 0.392061
1554 1 0.831223 0.0647833 0.600235
922 2 0.859976 0.180636 0.503746
1552 2 0.810283 0.0533929 0.579245
1553 1 0.825797 0.0390297 0.555542
1496 1 0.897599 0.0113594 0.46023
1798 2 0.911063 0.0771993 0.519857
1254 1 0.967527 0.235768 0.493076
1582 2 0.808743 0.20087 0.593033
1252 2 0.935967 0.23929 0.492499
1253 1 0.922084 0.210933 0.495955
1227 1 0.866154 0.094281 0.415102
1587 1 0.903497 0.1609 0.614269
1260 1 0.949258 0.210178 0.412626
1225 2 0.891825 0.112015 0.421045
1255 2 0.840361 0.0476041 0.35186
1855 2 0.921242 0.0550437 0.63336
1258 2 0.958101 0.198216 0.384563
1226 1 0.894365 0.116812 0.45234
1829 1 0.967244 0.00821932 0.645431
1259 1 0.984263 0.180604 0.388332
987 1 0.87015 0.180896 0.392697
1856 1 0.929796 0.0841533 0.623965
1229 1 0.96113 0.0228307 0.410712
985 2 0.844497 0.199582 0.391421
1585 2 0.91195 0.155447 0.584143
1586 1 0.941934 0.164926 0.579679
1800 1 0.940353 0.0682799 0.528304
986 1 0.826348 0.194405 0.416967
1589 1 0.991746 0.215463 0.614826
1616 1 0.859062 0.238552 0.612956
1588 2 0.974981 0.229857 0.59201
1590 1 0.946859 0.238927 0.603658
1228 2 0.962523 0.0184235 0.442136
1857 1 0.913394 0.0557295 0.66413
1230 1 0.990918 0.00650106 0.449906
1497 1 0.846535 0.0177922 0.453816
965 1 0.146486 0.256634 0.341766
966 1 0.128608 0.284415 0.381751
996 1 0.146534 0.347996 0.34494
1028 1 0.184539 0.484985 0.386419
994 2 0.118726 0.356867 0.357463
1024 2 0.103285 0.456516 0.336626
995 1 0.119276 0.352159 0.388869
1626 1 0.158857 0.487285 0.608543
1021 2 0.0123119 0.496319 0.384846
964 2 0.145469 0.258814 0.373437
1623 1 0.0933978 0.442716 0.557101
1563 1 0.0145432 0.282025 0.536691
1561 2 0.0451267 0.287228 0.52988
1562 1 0.0570632 0.261951 0.514801
1895 1 0.0931171 0.393931 0.622087
1022 1 0.0207293 0.465763 0.386909
1234 2 0.141829 0.250977 0.569694
1261 2 0.0496686 0.284557 0.406895
1262 1 0.0512965 0.306277 0.383778
1235 1 0.14186 0.281145 0.559761
1565 1 0.130435 0.320591 0.648077
1893 1 0.0255925 0.276016 0.616522
1319 1 0.00371943 0.387611 0.383911
1263 1 0.0224542 0.288126 0.422877
1293 1 0.0944571 0.325967 0.467536
1593 1 0.136866 0.371717 0.550837
1323 1 0.106686 0.415494 0.473396
1291 2 0.121642 0.336128 0.454631
1591 2 0.131002 0.344905 0.566822
1891 2 0.0526372 0.286897 0.629132
1321 2 0.103946 0.440036 0.453421
1621 2 0.0955618 0.4736 0.564194
1921 2 0.0220908 0.403168 0.661849
1294 2 0.187107 0.405732 0.511899
1292 1 0.146024 0.3204 0.467553
1592 1 0.102022 0.334257 0.559365
1322 1 0.0876559 0.430984 0.427701
1622 1 0.0771943 0.480008 0.589302
1892 1 0.0772184 0.276989 0.611628
1922 1 9.10923e-05 0.383763 0.649672
1318 2 0.0294579 0.40456 0.391597
1619 1 0.0360795 0.361624 0.524203
1618 2 0.0510884 0.38908 0.529653
1320 1 0.0534818 0.396624 0.372396
1295 1 0.1889 0.437443 0.511871
1620 1 0.0327242 0.413231 0.520256
1029 1 0.18739 0.443179 0.416985
2198 1 0.180221 0.381361 0.624083
1299 1 0.189946 0.376056 0.438161
1027 2 0.198886 0.472325 0.41177
1650 1 0.0201504 0.491307 0.662278
1026 1 0.110659 0.474204 0.361955
1350 1 0.00471358 0.451739 0.600479
1050 1 0.015931 0.474396 0.47095
1894 2 0.11347 0.402107 0.645059
1624 2 0.178147 0.490791 0.633532
1896 1 0.100023 0.423892 0.663858
1648 2 0.044619 0.49942 0.643723
1542 1 0.38744 0.257083 0.581585
1268 1 0.281524 0.250416 0.516444
1270 2 0.339665 0.254821 0.412682
1271 1 0.310016 0.259784 0.40243
1058 1 0.290727 0.491915 0.367923
1272 1 0.341015 0.25986 0.444013
1630 2 0.33695 0.495493 0.518224
672 1 0.309093 0.335225 0.365408
670 2 0.311989 0.333969 0.333803
1002 1 0.380644 0.32869 0.386993
1032 1 0.303397 0.400776 0.34738
972 1 0.220981 0.261513 0.380731
1332 1 0.36163 0.478847 0.400054
2199 1 0.215874 0.409896 0.59949
1902 1 0.319737 0.420956 0.61945
1296 1 0.216034 0.39349 0.507186
970 2 0.243425 0.274212 0.399274
1594 2 0.25375 0.468907 0.568274
1595 1 0.283503 0.471276 0.557413
1870 2 0.286435 0.294628 0.628328
1599 1 0.209671 0.311 0.520073
1871 1 0.306791 0.284103 0.65032
1899 1 0.283309 0.375754 0.53704
1329 1 0.248418 0.451529 0.446275
1302 1 0.346734 0.368064 0.443608
1602 1 0.397739 0.415642 0.463779
1297 2 0.213502 0.366962 0.418894
1597 2 0.200679 0.296349 0.493365
1897 2 0.277435 0.3474 0.523989
1327 2 0.275673 0.440752 0.458516
1300 2 0.320048 0.359742 0.428527
1030 2 0.313984 0.430535 0.344041
1330 2 0.357543 0.498463 0.424698
1298 1 0.207146 0.37637 0.389231
1598 1 0.216971 0.308179 0.4688
1328 1 0.298379 0.462629 0.454689
1301 1 0.295037 0.372255 0.443582
1898 1 0.30413 0.335907 0.511178
1904 1 0.369441 0.349066 0.567498
1903 2 0.375175 0.320087 0.55583
2197 2 0.210061 0.392185 0.625206
1905 1 0.393936 0.322471 0.530311
1901 1 0.283387 0.384022 0.621612
1900 2 0.311036 0.392458 0.608452
971 1 0.232447 0.300993 0.412353
2202 1 0.399135 0.273954 0.645293
1930 2 0.357664 0.475421 0.642624
1600 2 0.396188 0.389895 0.482313
1931 1 0.389148 0.477991 0.645937
1628 1 0.274678 0.49311 0.638832
1625 1 0.207307 0.480792 0.625882
1872 1 0.300079 0.317881 0.611537
1596 1 0.236645 0.493509 0.55774
2200 2 0.374784 0.285438 0.662144
1932 1 0.347214 0.498023 0.622908
999 1 0.23814 0.4194 0.334121
1038 1 0.502858 0.324202 0.369842
1574 1 0.491348 0.259168 0.658243
1034 1 0.429183 0.445234 0.360565
1550 1 0.550708 0.309973 0.539948
1277 1 0.584489 0.253046 0.381699
1064 1 0.554827 0.452548 0.359876
1063 2 0.529942 0.437043 0.347664
1065 1 0.528561 0.407824 0.360041
1001 1 0.415736 0.306811 0.355689
1033 2 0.418799 0.421109 0.342706
1000 2 0.411133 0.328847 0.378095
1035 1 0.417065 0.394803 0.360422
1037 1 0.551468 0.335538 0.383939
1363 2 0.472241 0.487677 0.526264
1571 1 0.458592 0.280428 0.495505
1365 1 0.487716 0.464615 0.510852
1572 1 0.447907 0.296438 0.447342
1570 2 0.447308 0.304459 0.478068
1601 1 0.421992 0.371959 0.477698
1578 1 0.465697 0.313866 0.596616
1305 1 0.476661 0.443263 0.433962
1605 1 0.504241 0.375786 0.437406
1335 1 0.581903 0.468771 0.481586
1635 1 0.408727 0.434502 0.561733
1608 1 0.537238 0.43401 0.610751
1303 2 0.452996 0.464305 0.431512
1603 2 0.501525 0.391886 0.46465
1333 2 0.5689 0.456612 0.455282
1633 2 0.423822 0.414726 0.581478