
variable systemNsize equal 5
variable rndSeed equal 1234
variable Nrun equal 500000
variable Nstab equal 5000
variable NdumpStats equal 10
variable NdumpFrames equal 10000
variable Text equal 298.0
variable Pext equal 1.0

units real
    # g/mol, A, fs, Kcal/mol, K, atm, g/cm^3
atom_style full
read_data SPCE.data
  orthogonal box = (0 0 0) to (3.1 3.1 3.1)
  1 by 1 by 3 MPI processor grid
  reading atoms ...
  3 atoms
  scanning bonds ...
  2 = max bonds/atom
  scanning angles ...
  1 = max angles/atom
  reading bonds ...
  2 bonds
  reading angles ...
  1 angles
  2 = max # of 1-2 neighbors
  1 = max # of 1-3 neighbors
  1 = max # of 1-4 neighbors
  2 = max # of special neighbors
  special bonds CPU = 0.000140905 secs
  read_data CPU = 0.00277901 secs

replicate ${systemNsize} ${systemNsize} ${systemNsize}
replicate 5 ${systemNsize} ${systemNsize}
replicate 5 5 ${systemNsize}
replicate 5 5 5
  orthogonal box = (0 0 0) to (15.5 15.5 15.5)
  1 by 1 by 3 MPI processor grid
  375 atoms
  250 bonds
  125 angles
  2 = max # of 1-2 neighbors
  1 = max # of 1-3 neighbors
  1 = max # of 1-4 neighbors
  2 = max # of special neighbors
  special bonds CPU = 0.000194073 secs
  replicate CPU = 0.00185204 secs

include SPCE.pot
# Original model from Berendsen et al, J Phys Chem 91:6269 (1987)
# Charges and geometry are specified in the ".data" file.

mass 1 1.008 # H
mass 2 15.9994 # O

#pair_style lj/cut/coul/dsf 0.1 12.0
#pair_style lj/cut/coul/long 12.0
    # LJ_Rcut (Coul_Rcut)
pair_style lj/cut/tip4p/long 2 1 1 1 0.15 12.0

pair_modify tail yes
    # assumtions and approximations:
    # 1) 3d bulk homogeneous liquid (+)
    # 2) RDF is unity beyond the cutoff (?)
    # 3) It's computed at the begining of the run, so N of particles shouldn't be changed (+)
    # 4) atoms don't feel additional energy but it's added to the PE etc
kspace_style pppm/tip4p 1.0e-5
#kspace_style pppm 1.0e-5
    # accuracy - desired relative error in forces

pair_coeff 1 1 0.00000 0.000
pair_coeff 1 2 0.00000 0.000
    # TODO - I would put here the sizes of H and O atoms instead of one big LJ repulsion from the O atom. What "e" to choose is still a question.
pair_coeff 2 2 0.1550 3.1536
    # epsilon, sigma, [LJ_Rcut, [Coul_Rcut]]
    # distance between H and O is 1.0 so 3.166 > 1.0 accounts for the size of a molecule as a whole
    # I guess the major part in forces inside a molecule are indeed due to OH and HOH (angle) bondings, so computing LJ and Coul for them would be practically a waste of time so it may be ommitted. So I see only an optimizational reason to set LJ coefs to 0 for H atoms inside a molecule. However here (as far as I understand) we set all LJ coefs to 0. I understand LJ is a short-rage potential so its contribution can be neglegible compared to Coul, but it's not obvious for me why it actually is.
    # TODO - there might be a more correct way to ommit unnecessary interaction by using special_bond

bond_style harmonic
    # E = k(r-r0)^2
bond_coeff 1 0.0 1.0
    # bondID k r0
    # ? - how does k=0 make sense?
    # Is this to formaly bond atoms but actual bonding is done by rattle?

angle_style harmonic
angle_coeff 1 0.0 104.52
    # ? - same, how does k=0 make sense?


velocity all create ${Text} ${rndSeed}
velocity all create 298 ${rndSeed}
velocity all create 298 1234

fix removeMomentum all momentum 1 linear 1 1 1 angular
    # 1 - adjust the momentum every 1 timesteps
    # linear 1/0 1/0 1/0 - zero the P_x/y/z
    # angular - zero angular momentum (TODO - add "angular" here?)
    # scale - scale velocities after the adjustment so T is conserved (TODO - add "scale" here?)

fix stab_iso all npt temp ${Text} ${Text} $(50.0*dt) iso ${Pext} ${Pext} $(500.0*dt)
fix stab_iso all npt temp 298 ${Text} $(50.0*dt) iso ${Pext} ${Pext} $(500.0*dt)
fix stab_iso all npt temp 298 298 $(50.0*dt) iso ${Pext} ${Pext} $(500.0*dt)
fix stab_iso all npt temp 298 298 50 iso ${Pext} ${Pext} $(500.0*dt)
fix stab_iso all npt temp 298 298 50 iso 1 ${Pext} $(500.0*dt)
fix stab_iso all npt temp 298 298 50 iso 1 1 $(500.0*dt)
fix stab_iso all npt temp 298 298 50 iso 1 1 500
    # Tstart,Tstop = external temperature at start/end of run
    # Tdamp = temperature damping parameter (time units)
    # temp - for thermostat, iso - for barostat

fix stab_constrain all rattle 1.0e-5 100 0 b 1 a 1
  0 = # of size 2 clusters
  0 = # of size 3 clusters
  0 = # of size 4 clusters
  125 = # of frozen angles
  find clusters CPU = 0.000272989 secs
    # fix ID group-ID shake tol iter N constraint1 value1 ...
    # iter - max # of iterations in each SHAKE solution
    # print SHAKE statistics every N many timesteps (0 = never)
    # b - bonds, a - angles
    # b 1 - bonds of type 1
    # a 1 - bonds of type 1
    # shake adds forces to make the displacement satisfy constraints - e.g. |r_ij|=d
    # rattle does the same and additionally it refines velocities - e.g. (|r|)'_t = 0.
    # *should be defined after other force- and v- modifiers since it doesn't account for them

thermo_style custom step density press temp
thermo ${NdumpStats}
thermo 10
run ${Nstab}
run 5000
PPPM initialization ...
  extracting TIP4P info from pair style
  using 12-bit tables for long-range coulomb (src/kspace.cpp:332)
  G vector (1/distance) = 0.258199
  grid = 12 12 12
  stencil order = 5
  estimated absolute RMS force accuracy = 0.00209317
  estimated relative force accuracy = 6.30351e-06
  using double precision FFTW3
  3d grid and FFT values/proc = 3971 576
Neighbor list info ...
  update every 1 steps, delay 10 steps, check yes
  max neighbors/atom: 2000, page size: 100000
  master list distance cutoff = 14.3
  ghost atom cutoff = 14.3
  binsize = 7.15, bins = 3 3 3
  1 neighbor lists, perpetual/occasional/extra = 1 0 0
  (1) pair lj/cut/tip4p/long, perpetual
      attributes: half, newton on
      pair build: half/bin/newton
      stencil: half/bin/3d/newton
      bin: standard
Per MPI rank memory allocation (min/avg/max) = 8.943 | 9.09 | 9.344 Mbytes
Step Density Press Temp 
       0    1.0041715    22988.518    294.41219 
      10    1.0012281    15687.403    391.40013 
      20   0.99378135    4010.7515    782.56774 
      30    0.9849012   -364.62447    897.42267 
      40   0.97623335    199.90067    780.88541 
      50   0.96780727    1056.2521    651.18828 
      60   0.95947015    1261.0354    557.63359 
      70   0.95124445   -32.411763    543.49658 
      80   0.94350208   -1129.5866    529.06372 
      90   0.93657413   -1482.2669    496.47837 
     100   0.93056938   -2097.1687    484.90115 
     110   0.92558102   -2091.7373    448.25828 
     120   0.92155386   -1760.5189    414.93836 
     130   0.91833068   -1626.1686    401.58548 
     140   0.91580881   -1830.8726    397.30062 
     150   0.91397291   -1738.9169    368.16418 
     160   0.91276816   -2008.7187    357.42451 
     170   0.91220215    -2070.656    350.21597 
     180   0.91224586   -1670.4519     332.6989 
     190   0.91277103   -1609.3366    337.24323 
     200    0.9137136   -1339.6138    331.07181 
     210   0.91498474   -847.30395    313.67902 
     220   0.91645028   -796.24705    316.51104 
     230   0.91806728   -519.83328    303.14141 
     240   0.91977138   -457.36414     296.8576 
     250   0.92153135   -288.42619    284.78615 
     260   0.92329725    238.26818    263.76834 
     270   0.92493781    485.03163    270.54444 
     280   0.92638822    296.41969    291.37317 
     290   0.92770456   -14.236419    293.95093 
     300   0.92897646   -24.903163    281.53924 
     310   0.93021854    129.13167    278.57638 
     320   0.93137857    694.80146    266.95093 
     330   0.93232309    709.70477    272.41762 
     340   0.93305084    25.010993    288.98957 
     350   0.93374678   -521.61982    299.03902 
     360   0.93456568   -558.94393    302.15021 
     370   0.93551705   -88.637224    288.54994 
     380   0.93648787    66.243593    305.98794 
     390   0.93739401    961.36257    292.33156 
     400    0.9380176    1535.1001     277.8891 
     410   0.93821113    965.13707    311.98908 
     420   0.93808381     1155.158    301.27949 
     430   0.93763627    819.55505    316.46043 
     440    0.9369428    605.44886    325.08709 
     450   0.93606702    966.83602    307.55304 
     460   0.93492739    1072.7337    312.40425 
     470   0.93347614     1387.243    300.44248 
     480   0.93164983    1274.5288    290.17126 
     490   0.92949373    453.58703    294.88668 
     500   0.92722292   -14.029564    291.52029 
     510   0.92498474   -285.84678    302.95244 
     520   0.92284207    1.7605108    284.73124 
     530   0.92074362   -59.063959    277.44727 
     540   0.91868545 -0.069097264    276.06006 
     550   0.91664727    351.24862    263.61277 
     560    0.9145607   -106.03762    275.03251 
     570   0.91253982   -815.92288    287.36217 
     580   0.91078101   -1322.6786    309.00581 
     590   0.90941673   -1391.9116    331.84958 
     600    0.9084545   -650.08343    320.32717 
     610   0.90768844    429.64334    290.70537 
     620   0.90683316     531.9664    296.89905 
     630   0.90583447    271.25336    297.86343 
     640   0.90476382    177.60877    285.94546 
     650   0.90365848   -48.081909    294.45846 
     660   0.90257805    -403.6679    313.32044 
     670   0.90161538   -536.47241    318.47994 
     680   0.90080906   -237.46491    313.09636 
     690   0.90006631    491.01425     295.4154 
     700   0.89920846     536.3808    286.69295 
     710   0.89820898    179.39865    273.03311 
     720    0.8971861    -807.5997    299.80559 
     730   0.89638449   -1113.9199    300.84787 
     740   0.89592323   -1457.0205    311.72036 
     750   0.89587772   -1387.3798    319.68949 
     760   0.89622811   -840.21738    316.01316 
     770   0.89681945   -274.19247    304.74966 
     780   0.89749973   -172.94359    305.35652 
     790    0.8982135    212.97299    301.40267 
     800    0.8988552    851.26895    286.92548 
     810   0.89926119    905.85841    286.37041 
     820   0.89941507    267.49869    302.92539 
     830   0.89946999      110.825    295.44646 
     840   0.89947515    567.83901    278.50106 
     850   0.89932236     687.9107    283.19259 
     860   0.89897003    470.17125     291.1648 
     870   0.89848097    182.61225    290.75321 
     880   0.89794729   -371.30737    299.14542 
     890   0.89752018   -845.21926    302.38693 
     900   0.89733602   -957.39092    287.45891 
     910   0.89743797   -1053.3387    291.50022 
     920   0.89784472   -994.02288    292.74907 
     930   0.89854768   -1013.7593    297.14368 
     940   0.89954792   -1025.3405    311.65304 
     950   0.90083417   -515.63982    303.27178 
     960    0.9022838   -355.69924    309.76147 
     970   0.90383598   -209.05232    318.28009 
     980   0.90543987    289.96318    325.56793 
     990   0.90694865    1104.8573    317.90428 
    1000   0.90814293    1582.4089    302.82762 
    1010   0.90888606    1431.0964    301.20561 
    1020   0.90920566    1289.8726    288.64514 
    1030   0.90915555    811.03171    295.06146 
    1040   0.90886057    266.82877    319.69767 
    1050   0.90846246    332.07424    310.46067 
    1060   0.90796765    421.04138    289.37812 
    1070   0.90735408    329.03055    279.75808 
    1080   0.90664816    10.657405    280.48478 
    1090   0.90593608   -384.20451    279.25009 
    1100   0.90533794   -876.98594    287.55393 
    1110   0.90498539   -1068.9488    290.16891 
    1120   0.90493776   -935.04966    286.38938 
    1130   0.90516099   -596.56739    280.18812 
    1140   0.90556887   -464.45037    289.50776 
    1150   0.90611273   -354.18704    304.70391 
    1160   0.90674478    268.22843    293.62432 
    1170   0.90731155    599.96507    293.30289 
    1180   0.90770276    778.02055    290.87673 
    1190   0.90787116    708.57123     306.2703 
    1200   0.90781694     916.1076    310.16281 
    1210   0.90749979     901.9992     302.4877 
    1220   0.90692525    489.23545    310.49671 
    1230    0.9061892    447.66279    303.36555 
    1240   0.90531945    267.60653    301.22623 
    1250   0.90436193   -50.131893    313.70886 
    1260   0.90338963    134.33203    315.40007 
    1270   0.90236805    406.81631    304.40844 
    1280   0.90121984    598.81652    291.88624 
    1290   0.89988359    769.71586    283.27932 
    1300   0.89831186    567.40644     286.6736 
    1310   0.89656638   -196.32091    308.61223 
    1320   0.89483872   -395.86852    306.15605 
    1330   0.89320562   -284.86695    294.69113 
    1340    0.8916482   -394.11599    285.18884 
    1350   0.89019782    -737.9534    282.96899 
    1360   0.88895459   -1195.1537    297.77243 
    1370   0.88803241    -1114.744    301.28369 
    1380   0.88741611   -534.23959    289.80405 
    1390   0.88695061    10.718907     277.1187 
    1400   0.88650355   -526.75703    308.07725 
    1410   0.88618238    -619.8583    305.94491 
    1420   0.88603722   -470.96082     301.5503 
    1430   0.88602414   -112.59696    298.47347 
    1440   0.88604505    282.30314    289.55267 
    1450   0.88600408    -140.4372    313.25562 
    1460    0.8859911   -405.09184    324.21024 
    1470   0.88608295   -272.94572    320.53858 
    1480   0.88624718     165.3728    309.20417 
    1490    0.8863618    764.49068    291.13291 
    1500   0.88626587     812.1214    297.31222 
    1510   0.88591805     926.0699    285.78454 
    1520   0.88529752    708.04392    290.42349 
    1530   0.88444039    735.92027    283.77612 
    1540   0.88336602    153.15602    288.67009 
    1550   0.88223288   -859.83377    301.46933 
    1560   0.88132192   -1538.1563    307.40405 
    1570   0.88083395   -1596.6359    301.55518 
    1580   0.88080344   -1288.3375    290.70183 
    1590   0.88116028   -1121.6528    298.36918 
    1600   0.88185017   -763.95923    285.49256 
    1610   0.88279751   -780.64613    283.51348 
    1620    0.8840032   -922.26998    296.86166 
    1630       0.8855   -549.97226    297.21792 
    1640    0.8871971    97.037437    287.71271 
    1650     0.888919    578.87405    274.01567 
    1660   0.89052948    483.13236    287.18123 
    1670   0.89202934      461.486       294.54 
    1680    0.8934391    282.89341    306.18368 
    1690   0.89479197    400.75952    308.81627 
    1700   0.89605866    721.12407    307.85894 
    1710   0.89714457     905.6473    310.41097 
    1720   0.89799791     704.0047     321.7147 
    1730    0.8986492    861.93382    320.77587 
    1740   0.89905316    1199.0754    303.59204 
    1750    0.8991372    644.98756    314.90072 
    1760   0.89901694    353.06935    327.75408 
    1770   0.89876993    595.73807    327.13742 
    1780   0.89833956    694.06721    317.96669 
    1790   0.89769356    642.02956    295.78454 
    1800   0.89684683    248.09731    284.61151 
    1810   0.89590859   -534.56073    296.99206 
    1820   0.89508302   -845.55112    294.67474 
    1830    0.8944812   -935.39584    292.99999 
    1840   0.89412834   -586.29441    284.96463 
    1850   0.89393763    36.318393    263.26752 
    1860   0.89375339   -128.30379    271.26254 
    1870   0.89359765   -459.51991    284.75927 
    1880   0.89357107   -768.29594    299.12898 
    1890   0.89375896   -690.45229    298.83505 
    1900   0.89415864   -479.20896    293.69673 
    1910    0.8947217   -494.88507    299.83293 
    1920   0.89544591   -328.77194    301.89135 
    1930    0.8962833    41.175963    308.04548 
    1940   0.89712977    559.26241    317.70118 
    1950   0.89782763    1322.6257    308.64823 
    1960   0.89817289    1423.9638    306.18355 
    1970   0.89811267    1071.3573    301.73092 
    1980   0.89772871    643.84666    306.00063 
    1990   0.89713293    296.28108    307.24314 
    2000   0.89642863   -65.339939    299.20198 
    2010   0.89573331   -830.49674    311.72658 
    2020   0.89524179   -1071.7548    299.19209 
    2030   0.89505091   -1039.6933    284.62625 
    2040   0.89515639   -743.52019    272.07751 
    2050   0.89549491   -632.07002    270.98961 
    2060   0.89603707   -834.20689     286.3131 
    2070   0.89682593   -481.48269     277.8623 
    2080   0.89778566   -36.479171    267.83252 
    2090   0.89880246   -156.10755    287.61469 
    2100   0.89988555   -74.965222    292.22042 
    2110   0.90101658    311.41604    281.16543 
    2120    0.9020989    364.35103    292.96174 
    2130   0.90310435    325.18285    304.94551 
    2140   0.90404021     406.3619    307.25842 
    2150   0.90487928    621.97883    305.23789 
    2160   0.90555742    818.23129    309.34977 
    2170   0.90600382    1149.4768    310.64985 
    2180   0.90611374    1550.7126    306.19007 
    2190   0.90576421     1801.067    292.86888 
    2200   0.90488328    1434.5933    302.88621 
    2210   0.90354107    1143.1728    312.75432 
    2220   0.90181066    1115.2729     320.8614 
    2230     0.899701    1164.3942    303.78264 
    2240   0.89721375    739.81032    295.69881 
    2250    0.8944627    51.844281    304.93221 
    2260    0.8916381   -612.20782    301.73098 
    2270   0.88895001   -1511.6004    320.31269 
    2280   0.88663837   -1699.8013    313.72853 
    2290   0.88479856   -1827.0562    304.79849 
    2300   0.88347179    -1987.057    311.12756 
    2310   0.88269524   -1593.3415    296.07469 
    2320    0.8823831   -1280.2899    286.32325 
    2330   0.88245409    -1308.414    296.66543 
    2340   0.88290145   -1014.1752    290.67947 
    2350   0.88366366   -896.77454    297.66367 
    2360   0.88470198   -811.31747    301.27901 
    2370     0.886006   -779.29053    304.15581 
    2380   0.88755886   -437.02595    303.11201 
    2390   0.88926383    54.756958    311.74737 
    2400    0.8909854    363.06501    318.62142 
    2410   0.89262951    551.76426    311.13148 
    2420   0.89414398    558.04261    314.61704 
    2430   0.89550174    1080.5334    293.27597 
    2440    0.8965695    1494.9934    272.85113 
    2450   0.89720581    1872.6209    266.73834 
    2460   0.89730043    1916.9913    277.61989 
    2470   0.89683257     1499.351    276.72476 
    2480   0.89592379    738.76614    275.94006 
    2490   0.89477002    387.01333    282.12753 
    2500   0.89348247    110.85377    298.87034 
    2510   0.89214512    -277.2713    311.25023 
    2520   0.89085577   -177.48744    292.67001 
    2530   0.88961362   -281.43617    291.80283 
    2540    0.8884299   -166.00885    291.12793 
    2550   0.88728444   -250.48341    305.96197 
    2560   0.88619769   -555.60108    333.89541 
    2570   0.88523585   -150.18634    321.33387 
    2580   0.88430374    444.24995    297.58168 
    2590   0.88324804     331.4254    303.26262 
    2600   0.88208711   -227.17759    335.39769 
    2610   0.88094882    1.6844009    325.43178 
    2620   0.87979552    302.55113    306.05271 
    2630   0.87854432    283.37997    301.89942 
    2640   0.87719156     246.1554    295.17428 
    2650   0.87575285    120.20843    289.77124 
    2660   0.87426849   -362.82623    305.09449 
    2670   0.87286213   -635.84962    319.85609 
    2680   0.87160879    -364.0432      315.635 
    2690   0.87044432     107.9246    302.72045 
    2700   0.86923841    327.89192    290.91591 
    2710   0.86793388   -6.6828394     294.4808 
    2720   0.86660256   -77.698166    283.85196 
    2730   0.86528468   -264.00657    284.89197 
    2740   0.86403008   -635.90829    302.29327 
    2750   0.86294302   -962.97785    315.87788 
    2760   0.86210937   -761.70211    305.80913 
    2770   0.86148715   -331.17412    294.30833 
    2780   0.86095325    137.51601     283.5885 
    2790   0.86038563    61.262606    283.88691 
    2800   0.85980246   -509.97305    297.68675 
    2810   0.85934485   -620.95907    293.54919 
    2820   0.85906979   -826.51082    301.63897 
    2830    0.8590346   -1059.3565    314.59185 
    2840   0.85930788    -1053.296    309.66789 
    2850    0.8598997   -1007.2208    302.22303 
    2860   0.86080543    -1112.073    313.12576 
    2870   0.86203726   -741.35019    314.05594 
    2880   0.86350515   -205.09672    312.77267 
    2890   0.86505744    274.09041     313.3523 
    2900   0.86654705    1011.5751    291.13688 
    2910   0.86778013    1170.8385    292.70909 
    2920    0.8686879     938.1586    304.28818 
    2930   0.86932786    690.99139    317.07787 
    2940   0.86976361    599.17988    321.46039 
    2950   0.87002679    564.84387    308.08549 
    2960   0.87013245    304.54259    307.27871 
    2970   0.87014677    33.955652    307.90748 
    2980    0.8701523   -316.26134    310.64683 
    2990   0.87023922   -308.54032    294.67329 
    3000   0.87042629   -516.23292    299.66724 
    3010   0.87076003   -639.21436    306.46672 
    3020   0.87128329   -645.64187    302.66789 
    3030   0.87200457   -521.24231    292.50758 
    3040   0.87289561   -379.79657    277.40793 
    3050   0.87392605   -495.06277     280.1361 
    3060   0.87511822   -525.34184    282.56999 
    3070   0.87649544   -806.49449    302.66397 
    3080   0.87812503   -769.52875    306.22514 
    3090   0.88000978   -537.24127    297.08364 
    3100    0.8821006   -627.38167    309.47229 
    3110   0.88440411   -391.16454    297.72303 
    3120   0.88687636   -236.39214    288.61915 
    3130   0.88946288   -37.386755    288.69096 
    3140   0.89210214    224.16441    290.44633 
    3150   0.89471606    468.34762    292.12005 
    3160    0.8972277    865.95485    283.83104 
    3170   0.89953772    720.95029     307.6685 
    3180   0.90165472    661.10934    338.64316 
    3190   0.90358581    1069.4155     340.4939 
    3200   0.90522238     1568.623    327.26265 
    3210   0.90642066    1899.0248    309.72149 
    3220   0.90708243    1759.7695    321.79964 
    3230   0.90721113    2014.9208    313.55622 
    3240   0.90676349    1623.2719    308.72008 
    3250   0.90584185    680.41164     306.6727 
    3260   0.90469673    139.10929    298.13069 
    3270   0.90349774   -252.94676    296.92083 
    3280    0.9023558   -580.72776    294.13521 
    3290   0.90138171   -1288.7278    308.16147 
    3300   0.90075321   -1355.9386    290.27115 
    3310   0.90051573   -1154.0068     270.8618 
    3320   0.90062074   -1049.1283    277.15189 
    3330   0.90102795   -681.77921    269.77417 
    3340   0.90165584   -703.86803    280.23441 
    3350   0.90248971   -546.07223    286.63599 
    3360   0.90349352    -203.6822     278.8969 
    3370   0.90458965   -378.50488    288.06385 
    3380   0.90581511   -728.60496    311.99535 
    3390   0.90725108   -267.30617    293.56482 
    3400   0.90879729    197.91899    280.44775 
    3410   0.91031487    460.04409    274.30902 
    3420   0.91173711    46.581467    297.08157 
    3430    0.9131544   -142.18428    303.77451 
    3440   0.91463142   -3.8167148    294.98534 
    3450   0.91614461   -187.46723    315.00045 
    3460   0.91771665    243.08529    309.31745 
    3470   0.91924347    698.11032     301.2778 
    3480   0.92058969    967.45588    293.52174 
    3490   0.92167295    952.28108    294.71241 
    3500   0.92249843     460.4124    318.36932 
    3510   0.92317862    430.31668    323.84372 
    3520   0.92372229     1082.429    300.36503 
    3530   0.92396904    1312.5834    297.91947 
    3540   0.92383286    1244.3362    290.26999 
    3550   0.92333609    804.64847    285.75486 
    3560   0.92259597    202.38838    295.35832 
    3570   0.92177989   -294.76284    304.76624 
    3580   0.92102757   -475.14972    302.30664 
    3590    0.9204053   -678.86136    306.89905 
    3600    0.9199587   -413.55027    282.98076 
    3610   0.91963896   -560.10013    274.19735 
    3620   0.91948309   -1047.7994    283.28428 
    3630   0.91962535   -1210.7198    278.46566 
    3640   0.92012391    -1094.273    268.61229 
    3650   0.92095048   -642.83666    254.75095 
    3660   0.92198785   -292.08919    245.25124 
    3670   0.92314733   -457.43355    252.68277 
    3680   0.92445989   -604.76775    267.74593 
    3690   0.92596889   -530.99615    275.73247 
    3700   0.92766224   -280.21055    274.36402 
    3710   0.92947568    44.772409     268.9548 
    3720   0.93131785    354.31543    268.20838 
    3730   0.93309753    519.34435    286.90442 
    3740   0.93474545    1026.0646     282.6855 
    3750   0.93613609    1106.5659    282.83674 
    3760   0.93723108    869.23169    296.96974 
    3770   0.93808358    655.53636    314.26309 
    3780    0.9387431    886.94225    311.70958 
    3790   0.93913814    1627.4241    285.43741 
    3800   0.93908131    1503.0081    296.70881 
    3810   0.93857788     1048.988     313.9011 
    3820   0.93773697    1047.1327    308.90985 
    3830   0.93657106    981.92214    301.28088 
    3840   0.93509825    653.36583    302.65876 
    3850   0.93339733    534.01035    292.33057 
    3860   0.93151774      49.5855    295.88139 
    3870   0.92959167   -593.74597    308.04252 
    3880   0.92778475   -590.81789    298.55999 
    3890   0.92611448   -272.58228    284.45742 
    3900   0.92450674   -321.80259    284.51765 
    3910   0.92296458   -404.80383    272.81544 
    3920   0.92153181   -989.24952    287.35218 
    3930   0.92036263   -1556.5079    303.53317 
    3940   0.91961171     -1346.39    290.40158 
    3950    0.9192467   -923.53174    288.66111 
    3960   0.91913337   -4.5713809    272.28332 
    3970   0.91904359    124.70585    291.01175 
    3980   0.91891841   -230.26672    322.01638 
    3990   0.91884141   -192.45881    325.06794 
    4000   0.91881662   -51.611892    330.83025 
    4010   0.91879311     444.1575    315.91441 
    4020   0.91865037    549.83978    310.65454 
    4030   0.91834584    398.16749    309.51272 
    4040   0.91791461    191.02429    309.50765 
    4050   0.91742006   -180.91862    304.29636 
    4060   0.91696803   -587.69441    297.53657 
    4070   0.91667715   -841.14676    294.34264 
    4080   0.91662766   -840.05537    279.88762 
    4090   0.91683966   -1159.3471    281.91387 
    4100   0.91739711    -1368.006    288.64274 
    4110   0.91835629   -1005.5535    281.71806 
    4120   0.91963348   -549.49726    281.87144 
    4130   0.92108824    193.04314    272.13906 
    4140   0.92252558      599.957    281.84999 
    4150   0.92382588    449.91424    312.08047 
    4160   0.92499918    803.19336    308.81042 
    4170    0.9259633    956.33314    311.42116 
    4180   0.92667333    518.37985    335.35482 
    4190   0.92722273    565.69997    324.92793 
    4200   0.92762263    541.45264    320.92469 
    4210   0.92786178    619.36922     321.6503 
    4220   0.92792202    594.02299    331.92503 
    4230   0.92778757    946.79878      322.914 
    4240   0.92738215    815.14884    313.34055 
    4250    0.9267365    280.67844      315.882 
    4260   0.92597417    472.25484    306.97225 
    4270     0.925056    850.80353     300.7917 
    4280   0.92387209     1015.848    297.17431 
    4290   0.92237991    756.60571    300.29379 
    4300   0.92063328    786.53606    283.56731 
    4310   0.91864619    323.96751    299.66983 
    4320   0.91652854    11.796073    310.64651 
    4330   0.91435997    554.13904    276.49916 
    4340   0.91204027    109.21606     293.6027 
    4350   0.90966156   -453.91168    307.72783 
    4360   0.90738715   -610.43683    299.07813 
    4370   0.90528327   -880.98386    312.84237 
    4380    0.9034055   -576.82009     309.7025 
    4390   0.90169265   -344.56645      297.714 
    4400   0.90007943   -427.68878     287.5093 
    4410   0.89859782   -1012.3232    303.91458 
    4420   0.89738252   -1062.7244    300.20068 
    4430   0.89646848   -930.14772    287.99124 
    4440   0.89582448   -890.25842    275.23337 
    4450   0.89543766   -779.69165    264.89052 
    4460    0.8952709   -355.41458    262.42234 
    4470    0.8951981    404.90128    246.07416 
    4480   0.89503071    289.31205    253.31001 
    4490   0.89477717    -18.49614     259.7333 
    4500   0.89451784   -16.987021    257.32866 
    4510    0.8942692   -232.59113    276.82772 
    4520   0.89407358   -155.16293    288.75476 
    4530   0.89391308    270.25462    281.85401 
    4540   0.89368334    352.67511    282.93689 
    4550   0.89335601    69.890218    288.35712 
    4560   0.89299818   -6.4360479    289.05946 
    4570   0.89263127    136.74417    294.65044 
    4580   0.89221818      291.415    293.28951 
    4590   0.89172413     164.2029    302.91683 
    4600   0.89116318    364.47895    308.31429 
    4610   0.89048191    755.01834    307.44709 
    4620   0.88958301    764.83247    293.52465 
    4630   0.88845881    502.28479    284.54015 
    4640   0.88718176    135.43174    298.86355 
    4650   0.88584954    -83.64522    323.06267 
    4660   0.88451148    446.52094    309.11206 
    4670   0.88304354    781.06975    297.44021 
    4680   0.88134587    601.17393    303.68096 
    4690   0.87946541    140.11032    298.75912 
    4700   0.87754634   -592.57368    304.48203 
    4710   0.87577977   -801.33369    305.78255 
    4720   0.87423961   -804.84477    315.11121 
    4730   0.87291396   -440.05282    303.28214 
    4740   0.87172532   -461.09107    298.64996 
    4750   0.87067536   -876.72909    316.63805 
    4760   0.86985786   -772.96878    313.95873 
    4770   0.86926522   -630.85314    307.00867 
    4780     0.868859   -595.95974    296.15204 
    4790    0.8686278   -495.22044    278.55802 
    4800   0.86854696   -529.77385    281.03992 
    4810   0.86860452   -246.75447    285.42567 
    4820   0.86873494   -57.157519     286.5863 
    4830   0.86889452    -380.5018    294.20798 
    4840   0.86915984   -591.25756    291.96219 
    4850   0.86960891    -1004.917    307.83133 
    4860   0.87034066   -870.84053    297.50399 
    4870   0.87133801   -546.38089    279.05337 
    4880   0.87251741   -588.74725    290.05859 
    4890    0.8738758   -577.68373    301.32047 
    4900   0.87540826   -315.66107    292.97712 
    4910   0.87705669   -196.49172    284.40005 
    4920   0.87877505    50.391697    274.84863 
    4930   0.88050564   -57.538683    287.60489 
    4940   0.88224836    436.57409    264.23787 
    4950   0.88389635    539.91613     269.4452 
    4960   0.88540122    394.67895    292.82229 
    4970   0.88679491    538.55769     296.1093 
    4980   0.88803909    854.10514    290.06412 
    4990   0.88904467    1101.5353    291.09832 
    5000   0.88974044    1080.7397    302.60358 
Loop time of 31.5693 on 3 procs for 5000 steps with 375 atoms

Performance: 13.684 ns/day, 1.754 hours/ns, 158.382 timesteps/s
99.8% CPU use with 3 MPI tasks x 1 OpenMP threads

MPI task timing breakdown:
Section |  min time  |  avg time  |  max time  |%varavg| %total
---------------------------------------------------------------
Pair    | 19.898     | 22.503     | 25.667     |  50.3 | 71.28
Bond    | 0.0050602  | 0.0056636  | 0.0065775  |   0.9 |  0.02
Kspace  | 1.9985     | 5.1613     | 7.7635     | 105.1 | 16.35
Neigh   | 0.82501    | 0.82513    | 0.82525    |   0.0 |  2.61
Comm    | 0.79093    | 0.80047    | 0.81176    |   1.0 |  2.54
Output  | 0.014268   | 0.017141   | 0.022835   |   3.1 |  0.05
Modify  | 2.1534     | 2.1822     | 2.2015     |   1.4 |  6.91
Other   |            | 0.07452    |            |       |  0.24

Nlocal:    125 ave 126 max 124 min
Histogram: 1 0 0 0 0 1 0 0 0 1
Nghost:    5863 ave 5866 max 5858 min
Histogram: 1 0 0 0 0 0 0 0 1 1
Neighs:    68264.3 ave 77079 max 60562 min
Histogram: 1 0 0 1 0 0 0 0 0 1

Total # of neighbors = 204793
Ave neighs/atom = 546.115
Ave special neighs/atom = 2
Neighbor list builds = 215
Dangerous builds = 0
unfix stab_iso
unfix stab_constrain

reset_timestep 0
fix iso all npt temp ${Text} ${Text} $(100.0*dt) iso ${Pext} ${Pext} $(1000.0*dt)
fix iso all npt temp 298 ${Text} $(100.0*dt) iso ${Pext} ${Pext} $(1000.0*dt)
fix iso all npt temp 298 298 $(100.0*dt) iso ${Pext} ${Pext} $(1000.0*dt)
fix iso all npt temp 298 298 100 iso ${Pext} ${Pext} $(1000.0*dt)
fix iso all npt temp 298 298 100 iso 1 ${Pext} $(1000.0*dt)
fix iso all npt temp 298 298 100 iso 1 1 $(1000.0*dt)
fix iso all npt temp 298 298 100 iso 1 1 1000
#fix iso all nvt temp ${Text} ${Text} $(100.0*dt)
fix constrain all rattle 1.0e-5 100 0 b 1 a 1
  0 = # of size 2 clusters
  0 = # of size 3 clusters
  0 = # of size 4 clusters
  125 = # of frozen angles
  find clusters CPU = 0.000151157 secs

thermo_style custom step density etotal press temp
thermo_modify flush yes
    # insures the output is dumped in the file and not buffered or something
thermo ${NdumpStats}
thermo 10
dump trj all atom ${NdumpFrames} wat.lammpstrj
dump trj all atom 10000 wat.lammpstrj

run ${Nrun}
run 500000
PPPM initialization ...
  extracting TIP4P info from pair style
  using 12-bit tables for long-range coulomb (src/kspace.cpp:332)
  G vector (1/distance) = 0.255756
  grid = 12 12 12
  stencil order = 5
  estimated absolute RMS force accuracy = 0.00236096
  estimated relative force accuracy = 7.10997e-06
  using double precision FFTW3
  3d grid and FFT values/proc = 3971 576
Per MPI rank memory allocation (min/avg/max) = 9.952 | 10.1 | 10.35 Mbytes
Step Density TotEng Press Temp 
       0   0.88974044   -541.88037     953.1539    302.60358 
      10   0.88970593   -541.96595    939.46143    302.92753 
      20    0.8896026   -542.10076    818.18556    306.70521 
      30   0.88943885   -542.42427     566.0118     315.9469 
      40   0.88923173   -542.98361    497.42533    308.23001 
      50   0.88898626   -543.70937    706.70568    294.41755 
      60   0.88869135   -544.40735     700.6733     287.0276 
      70   0.88834565   -544.99376    503.07661    289.37325 
      80   0.88796215   -545.45753    347.15471    289.45511 
      90   0.88755434   -545.90887   -44.616792    305.77774 
     100   0.88714611   -546.48026   -42.610177    305.60826 
     110   0.88673886    -547.1823    285.52443    287.97863 
     120   0.88631526   -547.90069   -71.951029    292.69056 
     130   0.88589653   -548.62847   -522.26173    294.22254 
     140   0.88551147   -549.29634   -282.54493    275.39645 
     150   0.88514951   -549.90207   -305.14737    288.65958 
     160   0.88480785   -550.44016   -396.87339    299.26952 
     170   0.88449696     -551.163   -837.76337    311.00807 
     180   0.88424451   -552.16934   -998.56352    302.72637 
     190   0.88406304   -553.39046   -767.09019    287.09304 
     200   0.88393791   -554.72997   -598.60608    299.38605 
     210   0.88385409   -556.39389   -283.94435    305.17568 
     220   0.88378998    -558.2626    147.48097    288.25741 
     230   0.88371872   -560.24815    11.477535     289.0335 
     240    0.8836453   -562.21395   -136.65037    278.41766 
     250   0.88358381   -563.96174   -532.80894    273.13729 
     260   0.88356399   -565.64812   -1266.8764    290.58357 
     270   0.88363109   -567.15729   -1180.7141    274.58936 
     280   0.88378676   -568.46186   -1129.4858    275.21951 
     290   0.88402487   -569.51845    -1031.575    278.80193 
     300   0.88433911   -570.39288   -978.95845    289.54328 
     310   0.88472309   -571.18732   -687.39068    293.82491 
     320   0.88515837   -571.91778   -329.64146      284.736 
     330   0.88562302    -572.5387   -543.62836    288.01685 
     340   0.88612929   -573.03768    -806.8927    280.07161 
     350   0.88669541   -573.24279    -712.0405    263.67773 
     360   0.88731728   -573.09346   -766.16243    281.18566 
     370   0.88799211   -572.59159   -265.47708    276.52641 
     380   0.88869029   -571.72947    148.39768    264.67627 
     390   0.88938482   -570.40764   -147.04224    283.33308 
     400   0.89008947   -568.61031   -147.85838    286.67472 
     410   0.89080527   -566.53154    250.65001    272.65472 
     420   0.89150742   -564.07388    502.69248    270.96375 
     430   0.89217488   -561.09256     819.3883    268.32378 
     440   0.89278675   -557.71256    865.85106    273.45318 
     450   0.89333814   -554.01496    696.92729    280.64062 
     460    0.8938389   -550.32059     653.4334    280.21011 
     470    0.8942938   -546.79436    484.10757    300.54979 
     480   0.89470926   -543.66402     896.5577    286.06997 
     490   0.89506514   -541.11093    869.76926    275.81884 
     500   0.89536301   -538.74858    154.59459    296.21843 
     510   0.89564884   -536.63116   -424.19314    309.92469 
     520   0.89596389   -534.96529    -563.7652    308.31176 
     530   0.89632019   -533.73125   -423.88204    302.36554 
     540   0.89670821   -532.71393   -176.65178    299.12578 
     550   0.89711303   -531.84948   -269.66134    304.47688 
     560   0.89753954   -531.13554   -519.69802    312.34457 
     570   0.89800436   -530.67507   -520.91521    317.02625 
     580   0.89850664    -530.5202   -75.506992    316.11628 
     590   0.89901575   -530.63876    592.52299     313.5425 
     600   0.89948273   -530.96041    1280.0926     311.6675 
     610   0.89986072   -531.56806    1372.8326    324.60278 
     620    0.9001391   -532.59369    1231.6255    327.22077 
     630   0.90032511   -534.03136     1480.637     313.1767 
     640    0.9004046   -535.74329    1458.9627    316.92819 
     650   0.90037701   -537.82697    1197.1987    323.39678 
     660   0.90026005   -540.34957    1085.6409    323.15321 
     670   0.90005967   -543.15252    1328.4851    310.37599 
     680   0.89976157   -546.09037    1470.1763    307.04191 
     690    0.8993512   -548.93091     1692.952    295.87463 
     700    0.8988165   -551.68952     1463.075    303.72709 
     710   0.89816766   -554.31593    1394.6013    301.33502 
     720   0.89741335   -556.75974    1283.2409     294.5672 
     730   0.89656044    -558.9071    1138.3041    294.84715 
     740   0.89561875   -560.98986    957.30889    312.06874 
     750   0.89459604   -562.94672    1304.2785     295.0596 
     760   0.89347702   -564.75403    1037.9908    296.88792 
     770   0.89227314   -566.38018    919.44085    296.43332 
     780   0.89099397   -567.72278    1048.1916    276.00553 
     790   0.88963682   -568.70712    548.88747    278.64097 
     800   0.88823225    -569.3276    76.670022     285.5938 
     810   0.88681304   -569.65204   -62.407332     273.9085 
     820   0.88539647   -569.65396   -696.46073    280.98186 
     830   0.88402483    -569.3607   -1316.9959    291.87448 
     840   0.88274077   -568.86263   -1316.6748    280.79362 
     850    0.8815516   -568.23888   -1621.8605    299.73906 
     860   0.88047561   -567.59179   -1831.1812    312.05487 
     870   0.87952503   -567.06162   -1239.0058    276.45477 
     880   0.87866496   -566.39976   -805.14413    257.64221 
     890   0.87786298   -565.30499   -853.20931    280.53563 
     900     0.877117    -563.8316   -679.21653    285.92076 
     910   0.87641684   -562.16352    -456.1708    279.24794 
     920   0.87574931   -560.29824   -548.38331    288.58527 
     930   0.87511632   -558.21158   -373.54622    283.84831 
     940   0.87450846   -556.00707   -201.38059    281.81262 
     950   0.87391356   -553.61447   -197.42529     288.3329 
     960   0.87332992   -551.11357   -237.21821    294.02876 
     970    0.8727596   -548.64451   -223.43262    297.07355 
     980   0.87220287    -546.3398   -295.10435    308.80125 
     990   0.87166273   -544.34729   -153.37772    311.69507 
    1000   0.87112858   -542.76977    260.20671    299.68097 
    1010   0.87057485   -541.49847    322.58308    303.65102 
    1020   0.86999416   -540.47908    270.36424    310.69452 
    1030   0.86938931   -539.78639    237.56946    313.24971 
    1040   0.86876292   -539.38087    286.04881    304.65535 
    1050   0.86811399   -539.21617    70.477956    307.21402 
    1060   0.86745343   -539.13543    42.472262    299.06653 
    1070   0.86678617   -539.12681   -9.5370926    296.14435 
    1080   0.86611445   -539.07086   -7.4895443    293.56442 
    1090   0.86543868   -538.96611    7.8716475    293.06236 
    1100   0.86475848   -538.79909   -97.165129    289.13963 
    1110   0.86408305   -538.55694    -510.4329    296.90942 
    1120   0.86343804   -538.26989   -640.92565    299.38038 
    1130   0.86283327   -538.01024   -356.64241     290.0253 
    1140   0.86225264   -537.71471   -311.70363    291.64364 
    1150   0.86168969   -537.34609   -192.84672    292.43975 
    1160   0.86113579   -536.92447   -11.332025    288.10816 
    1170   0.86057984   -536.41385   -96.947575    292.89824 
    1180   0.86002558   -535.79585   -133.23654    292.01333 
    1190   0.85947636   -535.12282   -112.41614    288.67147 
    1200   0.85893292   -534.39693   -379.72527    301.13549 
    1210   0.85840948   -533.59767   -329.67235    290.17169 
    1220   0.85790964   -532.80809   -586.36859    288.54413 
    1230   0.85744818   -531.80493   -935.51855    288.84666 
    1240   0.85705347   -530.73992   -1561.5294    315.33945 
    1250   0.85676254    -529.7255   -1219.0503    294.73151 
    1260   0.85656267   -528.79553   -1123.4338    286.60116 
    1270   0.85644657   -527.72382   -1612.7633    317.69002 
    1280   0.85644204   -526.76374   -1416.2514    318.51735 
    1290   0.85653999   -526.10517   -857.70601    304.39898 
    1300   0.85670403   -525.58134   -478.68379    298.41236 
    1310   0.85690627   -525.04882   -307.19566     298.3368 
    1320   0.85713226   -524.40621   -104.81925    295.41285 
    1330   0.85737085   -523.72033   -291.27752    305.94391 
    1340   0.85763343   -523.00399   -544.09248    312.38397 
    1350   0.85793896   -522.43093   -789.78312    321.91456 
    1360    0.8583057   -522.16618   -998.27958     331.1719 
    1370   0.85874796   -522.34882   -833.89449    320.15387 
    1380   0.85925838   -522.99299   -671.40044    311.46646 
    1390    0.8598257   -524.05451    -643.4952    311.03428 
    1400   0.86044818   -525.54341    -588.5757    302.73983 
    1410   0.86112231   -527.32518   -418.71112    285.24002 
    1420    0.8618399   -529.25358   -487.30395    286.12644 
    1430   0.86260279   -531.37744   -496.40063    293.43084 
    1440   0.86341252   -533.82626   -416.55984    300.97121 
    1450   0.86425989   -536.41539    225.23085    282.92919 
    1460   0.86510742   -538.79764    472.42778    272.91463 
    1470   0.86593617   -540.96621    226.19997    275.06256 
    1480   0.86676186   -542.92271   -181.00741    284.96001 
    1490    0.8676121   -544.91331   -470.94054    299.63082 
    1500    0.8685069   -546.82008   -221.50089     280.6178 
    1510   0.86943517   -548.42727   -136.76473    271.68152 
    1520   0.87038907   -549.71661   -165.77655    280.37264 
    1530   0.87136891      -550.84   -106.99342    296.51001 
    1540    0.8723711   -551.98241    25.714342    304.43083 
    1550   0.87338858   -553.20233    74.462038    302.16095 
    1560   0.87441745   -554.50741    202.83454    298.22723 
    1570    0.8754484   -555.78116    436.18824    289.17104 
    1580   0.87646745    -556.9724    270.70332    299.28645 
    1590   0.87748363   -558.40359    44.576259    321.47545 
    1600    0.8785088   -560.09297    463.08664    307.22677 
    1610   0.87952122   -562.03513    584.54103    306.18581 
    1620   0.88050875   -564.13892    486.17952    310.57723 
    1630   0.88147832    -566.5103    236.22823    314.62581 
    1640   0.88244724   -569.22571    63.875643    316.88306 
    1650   0.88342943   -572.19827   -152.22617    316.24015 
    1660   0.88444219   -575.52809   -520.65604    325.61114 
    1670   0.88550707   -578.97749   -205.24778    304.09489 
    1680   0.88660867   -582.02726    156.51231    287.24699 
    1690   0.88771919   -584.52682     476.9426    285.18981 
    1700   0.88881592   -586.57534    582.38755    296.07447 
    1710   0.88988931   -588.38661    638.40312    302.54242 
    1720   0.89093161   -589.88643    1186.1792    291.88054 
    1730   0.89190685    -591.0632    1608.8184    287.79288 
    1740   0.89278284   -591.93523    1704.8741    285.65888 
    1750    0.8935499   -592.48022    1644.1065    281.69579 
    1760   0.89421088   -592.80464    1416.5125    291.13003 
    1770   0.89477946   -592.98166    1149.1326    291.94614 
    1780     0.895271   -592.98161    1294.6339    276.00452 
    1790   0.89568123   -592.84558    871.54676    293.16063 
    1800   0.89603246   -592.54205    593.73178    288.55618 
    1810   0.89634884   -592.18208    121.96126    291.52473 
    1820   0.89666099   -591.73392   -243.37974    292.17455 
    1830   0.89699452   -591.21483   -123.01996    280.97588 
    1840   0.89734573   -590.52501   -132.05592    283.13304 
    1850   0.89771534    -589.6206   -347.22909    281.58687 
    1860   0.89812011   -588.56998   -733.23498    287.22625 
    1870   0.89858166   -587.32069   -333.90639    273.34403 
    1880   0.89907815   -585.83495    208.66088    272.55387 
    1890   0.89957039   -584.00779    613.59067    274.17704 
    1900   0.90003061     -581.859    585.72111    271.77991 
    1910    0.9004608   -579.45638    135.78821    283.36953 
    1920   0.90088908   -576.85946   -235.45887    302.36927 
    1930   0.90133909    -574.3598    35.333264    299.87152 
    1940   0.90179768   -572.16807    219.03793     302.0206 
    1950   0.90224921   -570.21661    464.48564    297.28091 
    1960   0.90267708   -568.51845    696.41325    292.52427 
    1970   0.90306267    -566.9714    902.32347    293.32096 
    1980   0.90338874   -565.54131    1230.7768    289.42451 
    1990   0.90363224   -564.20737    1364.0098    285.83999 
    2000   0.90378221   -562.94719    1077.0887    300.29522 
    2010   0.90385213   -561.78938    1056.1496    303.48358 
    2020   0.90384634   -560.90684    987.09263    304.34076 
    2030   0.90376627    -560.1992    931.72983    296.06498 
    2040   0.90361607   -559.58966    718.31109    294.20844 
    2050   0.90340878   -559.03543    479.31966    299.31431 
    2060   0.90315933   -558.51819    450.72664    296.16899 
    2070   0.90287037   -558.04024    472.68688    296.49084 
    2080   0.90253722   -557.55662    759.46303    283.12624 
    2090   0.90214303   -556.97088    609.28943    287.53137 
    2100   0.90169458   -556.29754    227.50406    304.22147 
    2110   0.90121366   -555.62463    317.73648    296.92065 
    2120   0.90070027   -555.07907    116.06357    301.08683 
    2130   0.90016176   -554.51656     427.0485    283.99832 
    2140   0.89958098   -553.86291     527.7846     280.9039 
    2150   0.89895241   -553.00763   -146.04505    298.47394 
    2160   0.89831874   -552.06128   -692.85369    299.27383 
    2170   0.89771912   -551.12554   -680.08185    289.30648 
    2180   0.89715574   -550.15862   -547.73862    295.73742 
    2190   0.89661956   -549.10942   -477.79092    299.25007 
    2200   0.89610941   -548.09758   -907.11691    312.77092 
    2210   0.89565022   -547.21026    -826.3879     302.9761 
    2220   0.89524166   -546.41563   -472.39001    284.72536 
    2230    0.8948622   -545.51733   -458.45032    294.47534 
    2240   0.89450607   -544.44983   -306.16927    292.99033 
    2250   0.89416642   -543.32048   -381.59508    295.29823 
    2260   0.89384536   -542.04682   -247.18486    287.20021 
    2270   0.89353664   -540.59874    -229.9651    291.45965 
    2280   0.89323721   -538.88532   -257.25928    305.39495 
    2290   0.89294642   -537.01408    39.956617    303.84663 
    2300   0.89264814   -535.07769    105.36995    315.15931 
    2310   0.89233453   -533.09024    235.25664    316.38283 
    2320   0.89199705   -531.19252    301.87508    316.87491 
    2330   0.89162957   -529.30646    401.07535    310.76541 
    2340   0.89122583   -527.37367    369.58772    312.81794 
    2350   0.89078558   -525.28174    415.73699    315.49728 
    2360   0.89030494   -523.05226    489.77789    318.99688 
    2370   0.88977918   -520.69282    387.41084    335.57541 
    2380   0.88920989    -518.3827    803.86091    324.82704 
    2390   0.88857215   -516.25153    1071.2082    313.94711 
    2400   0.88784667   -514.06389    726.19907    332.46112 
    2410   0.88704683   -511.90168    1150.0562    320.63213 
    2420    0.8861494    -509.9448    1483.2079    313.78267 
    2430   0.88512718   -507.97711    1575.3556    319.09087 
    2440    0.8839701   -506.06028    1656.8143    324.18192 
    2450   0.88267199   -504.35278     1508.599    335.09606 
    2460   0.88124143   -502.98156    1325.1234       336.42 
    2470    0.8796925   -502.16815    1031.9953    346.44624 
    2480   0.87804054   -502.02424    1272.1172    333.87796 
    2490   0.87627401   -502.52732    1468.6188    317.07784 
    2500   0.87438122    -503.4374    1075.5909    320.44888 
    2510   0.87238776   -504.75928    500.42384     327.6634 
    2520   0.87033314   -506.60285    272.01234    318.51802 
    2530   0.86823654   -508.79196    225.68041    298.76256 
    2540   0.86610971   -511.20194   -454.47376    310.05813 
    2550   0.86399534   -513.85635   -656.30716    302.33073 
    2560   0.86191367   -516.49828   -563.62829    282.97601 
    2570   0.85986478   -519.01301   -1098.8819     292.9333 
    2580   0.85788301   -521.47393   -1552.1313    299.52241 
    2590   0.85600232   -523.81723   -1520.2274    285.81272 
    2600   0.85422736   -525.89794   -1645.4266    283.19147 
    2610   0.85256618   -527.69788   -1833.7864    285.12006 
    2620   0.85103248   -529.17306   -1806.5189    274.89788 
    2630    0.8496283   -530.33572   -2013.2929    288.23441 
    2640   0.84836407     -531.384   -1965.4302    302.27608 
    2650   0.84723647    -532.4567    -1431.267    293.77603 
    2660   0.84621064   -533.44896   -850.33058    279.42024 
    2670   0.84524683   -534.16546   -616.38164    274.05468 
    2680   0.84432815   -534.59299   -885.76059    289.93677 
    2690   0.84346956    -534.9133   -1044.3389    304.97446 
    2700   0.84268121   -535.24593   -790.47183    292.67126 
    2710   0.84195209   -535.56475   -807.05908    285.61612 
    2720    0.8412786   -535.65643   -625.99369     276.6801 
    2730   0.84065182   -535.55079   -781.40231     291.2185 
    2740   0.84007848   -535.26177   -856.54001    292.70509 
    2750   0.83956464   -534.90847   -669.20506    286.51351 
    2760   0.83909723   -534.33636   -299.80743    271.08589 
    2770   0.83865515   -533.41513   -507.15123    280.37023 
    2780   0.83824925   -532.04524    -925.4881     297.6049 
    2790   0.83790653    -530.3724   -978.11174    290.86791 
    2800   0.83763425   -528.40136   -989.45658    299.97512 
    2810   0.83743098    -526.0372   -668.87767    297.95573 
    2820   0.83727712   -523.34486   -385.20428    288.75239 
    2830   0.83715389    -520.1307   -480.13422     292.0345 
    2840   0.83706403   -516.35553   -402.22007    291.32427 
    2850   0.83700231   -512.16542   -211.85499    293.30949 
    2860   0.83695638   -507.71535   -206.98211      305.278 
    2870   0.83692257   -503.39742    49.325742    293.30201 
    2880   0.83688819   -499.59052   -5.0703962    298.55429 
    2890   0.83685297   -496.20156   -82.344585    311.95739 
    2900   0.83682406   -493.51627   -237.95134    317.89341 
    2910   0.83681319   -491.59132   -566.34873    324.18191 
    2920   0.83684263   -490.45566   -724.44875     334.5056 
    2930   0.83691942   -489.95093   -19.989459    313.42411 
    2940   0.83700026   -489.84775    576.04065    308.94973 
    2950   0.83703961   -489.91766    946.13201    311.53048 
    2960     0.837011   -490.17133    989.71446    307.79632 
    2970   0.83691153   -490.59415    687.73444    310.42655 
    2980   0.83675827   -491.13728    529.58191    308.96352 
    2990   0.83656705   -491.85739    156.99627    319.97025 
    3000   0.83635983   -492.86609    219.03343    316.07517 
    3010   0.83613295   -493.94979    799.92319    286.57876 
    3020   0.83585116   -494.91259    764.91843    285.28114 
    3030   0.83551203   -495.67619    447.68101    292.66018 
    3040   0.83513852   -496.39804   -73.866728    306.03041 
    3050   0.83476774   -497.18896   -523.95608     310.4992 
    3060   0.83443373   -498.19244   -856.10365    321.32788 
    3070   0.83415867   -499.63416   -881.85071    325.58315 
    3080   0.83394535   -501.41334   -690.08031     312.6946 
    3090   0.83378501   -503.60698   -1023.8579    327.23301 
    3100   0.83369505    -506.1988   -1005.5196    317.17235 
    3110   0.83367889   -508.97963   -859.37319    305.90667 
    3120   0.83372507   -511.82981   -649.04661    308.17035 
    3130   0.83381905   -514.72338   -485.04717    308.13856 
    3140   0.83394648   -517.51563   -22.426375    296.47616 
    3150   0.83407615   -519.95528    432.40788    288.97623 
    3160   0.83417674   -522.07164    506.44354    294.98641 
    3170   0.83423976   -523.95857    499.33637    301.30955 
    3180   0.83426598   -525.72717    364.72857    303.75721 
    3190   0.83426485    -527.3463    225.97943    299.56267 
    3200   0.83424847   -528.81722   -83.343157    305.45322 
    3210   0.83423776   -530.25294   -444.80263     316.0955 
    3220   0.83425958   -531.88711   -891.10118    327.38158 
    3230   0.83434518   -533.73892   -1139.9268    321.26293 
    3240   0.83451295   -535.68018   -981.60116    308.59429 
    3250   0.83475094   -537.43683   -333.88939    289.78289 
    3260   0.83501604   -538.76445      219.157    272.14891 
    3270   0.83527077   -539.62155    83.358052    280.29187 
    3280   0.83552262   -540.30688   -536.37885    304.12827 
    3290   0.83580929   -540.83537   -457.50909    282.04557 
    3300   0.83613411   -541.18919   -549.75175    285.29412 
    3310   0.83649998   -541.37642   -591.06631    299.99612 
    3320   0.83690798   -541.46265   -168.14723    281.56737 
    3330   0.83733416   -541.38948   -118.28112     277.2552 
    3340   0.83777222   -541.05528   -194.01463    274.91561 
    3350   0.83822817   -540.39967   -360.22674    274.96655 
    3360   0.83871544   -539.49612   -828.74525    293.78573 
    3370   0.83926326   -538.45343   -859.25524    297.32125 
    3380   0.83987736   -537.46102   -742.74253    297.90816 
    3390   0.84054691   -536.41172   -201.20199     269.6707 
    3400   0.84124152   -535.17709   -340.32227    275.89924 
    3410   0.84196473   -533.56473   -556.54628    284.31354 
    3420   0.84273206   -531.73152   -568.20146    284.16595 
    3430   0.84354808   -529.75774   -872.09015    302.56759 
    3440   0.84442874   -527.74234   -589.84326    286.59121 
    3450   0.84536045   -525.78816   -354.36301     288.3576 
    3460   0.84632315    -523.6879   -36.875703    288.49222 
    3470   0.84729643   -521.58554    86.905182    292.33733 
    3480   0.84826879   -519.48861     167.0773    304.72718 
    3490    0.8492333   -517.60289    319.98345    327.96791 
    3500   0.85017549   -516.19033    931.88338    321.46337 
    3510    0.8510583   -515.29717    1071.6799     312.1844 
    3520   0.85187261   -514.81079    354.59882     333.2529 
    3530   0.85266004   -514.87346    208.96192    329.70537 
    3540   0.85343281   -515.32482    766.62497    304.42248 
    3550   0.85415478   -515.80966    1149.8673    300.62552 
    3560   0.85479853   -516.31856    996.01094    316.69773 
    3570   0.85537013   -517.00361    937.39261    318.49339 
    3580   0.85587555   -517.88336    1009.0992     311.4558 
    3590   0.85630945   -518.82064    1056.3891    314.62857 
    3600    0.8566678   -519.96187    978.46314    326.74715 
    3610   0.85695456   -521.28639    985.88917    312.50336 
    3620   0.85717283   -522.64494    718.89919     312.0772 
    3630   0.85733647   -524.04232    768.09791    307.54667 
    3640   0.85744224   -525.24062    1131.2088    292.26636 
    3650   0.85746998   -526.39282    786.54867    314.34683 
    3660   0.85743618   -527.56067    688.29964    311.68297 
    3670   0.85735314   -528.82814      350.904    313.84338 
    3680   0.85724325   -530.22023   -68.985619    316.14067 
    3690   0.85713446   -531.64663   -35.418125    298.58614 
    3700   0.85702905   -532.89474   -14.374622    286.16139 
    3710   0.85692536   -533.92521   -181.28191    298.52654 
    3720   0.85683175   -534.96364   -187.42454    317.89311 
    3730   0.85674656   -536.15101    350.74904    305.22395 
    3740    0.8566364   -537.32509    759.94667     290.5391 
    3750    0.8564717   -538.37174    732.29157     294.6995 
    3760   0.85625032   -539.28208    732.31828    293.48005 
    3770    0.8559757    -540.1346     447.6586    295.15799 
    3780   0.85566659   -540.81556    108.63943    281.37558 
    3790   0.85534814   -541.29127   -188.71171    286.62368 
    3800   0.85503664   -541.58485    108.79346    284.04253 
    3810   0.85471536   -541.65174    335.89413    281.37328 
    3820   0.85436881   -541.59521    154.66989    301.42471 
    3830   0.85400326   -541.41867    555.39865      277.303 
    3840   0.85360266   -541.06837     90.86091    278.42898 
    3850   0.85319511   -540.43723   -841.85168    308.96159 
    3860   0.85283798   -539.75024    -660.7549    301.29177 
    3870   0.85252656   -539.14118   -183.44582    291.65281 
    3880   0.85222906   -538.51238    -175.2253    309.25734 
    3890   0.85193773   -537.81669    276.03104     286.4841 
    3900   0.85162906   -537.04371    288.60255    284.94143 
    3910   0.85129637   -535.96678    229.35636    296.52186 
    3920   0.85094212   -534.61908    415.49293    289.61026 
    3930   0.85055812   -533.02979    108.44753    300.90858 
    3940   0.85015901   -531.06198    235.57948    290.67772 
    3950   0.84973984   -528.79601    453.79957    285.61023 
    3960   0.84928353   -525.91344    612.39318    280.58195 
    3970   0.84878263   -522.44346    447.98285    280.33174 
    3980   0.84824432   -518.31078    332.54312     283.5899 
    3990    0.8476783   -513.73014    76.832527    297.01538 
    4000   0.84710292    -509.0786   -325.35071    309.48796 
    4010   0.84654673   -504.90829   -659.15896    321.26656 
    4020   0.84603395   -501.58096   -835.81401    331.97892 
    4030   0.84557539   -499.25914   -588.85153     326.2695 
    4040   0.84515724   -497.84347   -354.71728    319.76249 
    4050   0.84476184   -496.97957   -84.872702    303.42013 
    4060   0.84437139   -496.37454    12.528079    302.64414 
    4070   0.84397765   -495.97489    -132.2675    322.98459 
    4080   0.84358776    -495.9014   -59.468543    321.31142 
    4090   0.84320152   -496.26479   -351.28295    334.01666 
    4100   0.84283697   -497.19942   -673.13478    347.01576 
    4110   0.84251431   -498.69162    -273.3361    315.31692 
    4120     0.842213   -500.37616   -205.91548    312.69317 
    4130   0.84192391   -502.29742   -305.17807    328.08773 
    4140   0.84165223   -504.54454   -144.42709    323.53522 
    4150   0.84139065   -507.05255   -235.33613    317.77395 
    4160   0.84114383   -509.64951   -298.44647    307.65833 
    4170   0.84091771   -512.18499   -475.19009    311.48181 
    4180   0.84072498   -514.88686   -872.08917    330.92664 
    4190   0.84059134   -517.90055   -976.71087    330.81969 
    4200   0.84052664   -521.01918   -863.75004    316.36955 
    4210    0.8405245    -523.9412   -667.08311     298.8597 
    4220   0.84057254   -526.33685   -484.24881    282.73033 
    4230   0.84066065   -528.26152   -765.19321    293.24889 
    4240   0.84080556   -529.95526   -1116.8447     303.8987 
    4250   0.84103221   -531.56293   -1279.6087    306.10366 
    4260   0.84135433   -533.15461   -1291.5005    306.44335 
    4270   0.84177218    -534.6056     -928.641    288.93635 
    4280   0.84226416   -535.79973   -650.94353    286.03933 
    4290   0.84280996     -536.772   -558.71888    295.74047 
    4300   0.84340316   -537.69429   -693.35202    308.11869 
    4310   0.84405158   -538.73822   -667.37969    308.09539 
    4320   0.84475459   -539.79339   -425.12443    296.90646 
    4330   0.84549769   -540.87608   -357.01362    306.21947 
    4340    0.8462707   -541.98766    221.30951    298.23529 
    4350   0.84703549   -542.99767    883.21138    284.73193 
    4360   0.84774435   -543.75782    1212.4364    282.29697 
    4370   0.84837341   -544.34474    1067.5903    292.72964 
    4380   0.84892882   -544.85871    919.31581    293.06745 
    4390   0.84942026   -545.24901    917.54746    280.73311 
    4400   0.84985177   -545.47105    566.07178    282.81854 
    4410   0.85024627   -545.46216    99.739375    283.15152 
    4420   0.85063819   -545.26853   -348.08844    287.92038 
    4430   0.85105668   -544.89398   -364.34482    289.71099 
    4440   0.85150438   -544.36346   -36.106271     284.3733 
    4450   0.85196009   -543.61702    214.51539    292.10805 
    4460   0.85240252   -542.65405    586.10036    295.66385 
    4470   0.85280762   -541.57539    655.57067    307.36059 
    4480   0.85316613   -540.41202    898.48189    292.65076 
    4490   0.85346651   -539.15349    598.16557    302.87755 
    4500   0.85372585   -537.76158    33.889575    333.64358 
    4510    0.8539768   -536.53821     537.5131    303.77904 
    4520    0.8541956   -535.43174    662.63867    285.32156 
    4530   0.85437019   -534.00474    425.24216    286.62114 
    4540   0.85451417   -532.13985    354.78011    285.27895 
    4550   0.85463351   -529.77273    318.47116    284.85901 
    4560   0.85473245   -526.88684   -1.0938299    296.78203 
    4570   0.85483127    -523.4552   -305.67047    308.29564 
    4580    0.8549515   -519.81005   -399.02885    314.96588 
    4590   0.85510238   -516.23499   -552.06384    329.91765 
    4600   0.85529262   -513.02101   -408.50522    327.18345 
    4610    0.8555157   -510.39818   -271.16193    329.03459 
    4620   0.85576006   -508.33169   -13.576886    328.14311 
    4630   0.85600678   -506.80878    507.49517      309.499 
    4640   0.85622079   -505.59028    784.27537    300.98674 
    4650   0.85638323    -504.5034    423.73841    311.30359 
    4660   0.85651605   -503.60375    -127.3358    321.83717 
    4670   0.85665884   -503.09573   -507.43484    327.26422 
    4680   0.85683631    -502.9756   -180.48562    310.90326 
    4690   0.85703233    -503.1606   -115.72743    315.31152 
    4700   0.85723734   -503.55696     63.81852    310.79731 
    4710   0.85744206   -504.18279    37.403529    307.63228 
    4720   0.85764628   -504.96608   -150.88253    306.09857 
    4730    0.8578641   -505.90689   -331.49216    300.25992 
    4740   0.85810847   -506.88488   -433.21425    297.25033 
    4750   0.85838917   -508.08949    -725.6979    315.54759 
    4760   0.85871943   -509.45578   -158.74265    295.45822 
    4770   0.85907024   -511.03585   -6.7194516    304.25302 
    4780   0.85942573   -512.96349   -118.99455    317.42981 
    4790   0.85979178    -515.3713   -15.330002    304.36439 
    4800   0.86016494   -518.15595    34.224329    294.65426 
    4810    0.8605402   -521.14922    76.264741    289.80229 
    4820   0.86091745   -524.43071   -255.72688    299.61929 
    4830   0.86131633   -528.16266   -400.12698    304.30975 
    4840   0.86174532   -532.03182    46.167787       289.84 
    4850   0.86217787   -535.84379    308.32951    294.76378 
    4860   0.86259209   -539.48237    526.73113    290.20253 
    4870   0.86297472   -542.58303    588.09205    276.54766 
    4880   0.86331987   -544.95058    529.27132    273.94416 
    4890   0.86363045   -546.73553    391.10996    283.94261 
    4900   0.86391347   -548.00897    487.86234    285.26418 
    4910   0.86416326   -548.95047    608.53937    295.18655 
    4920   0.86436986   -549.65998    773.21383    297.71704 
    4930   0.86452426   -550.23474    641.10774    293.90706 
    4940   0.86463173   -550.62576    728.11331     284.1669 
    4950     0.864687   -550.82085    802.88512    291.42037 
    4960    0.8646807   -550.89724    979.08512    297.00287 
    4970   0.86460379   -550.93177    843.15498    296.42027 
    4980   0.86446418   -551.00923    501.70269    305.95133 
    4990   0.86428065     -551.111    754.84303    297.68042 
    5000   0.86404129   -551.26329    743.04352    303.04266 
    5010   0.86374386   -551.46955    582.95385    305.96974 
    5020   0.86339931   -551.80232    442.71023    306.99781 
    5030   0.86301515   -552.18849    566.34861    294.34125 
    5040   0.86258714    -552.5718    285.72203    298.20309 
    5050   0.86213074   -552.95795    25.694092    300.10186 
    5060   0.86166555   -553.25883   -95.288621    282.49914 
    5070    0.8612046   -553.43333     -613.826    290.34968 
    5080   0.86077993   -553.42181   -938.15983    295.62573 
    5090   0.86041761   -553.40828    -1129.396    302.49508 
    5100   0.86013054   -553.41714   -840.87974    292.94392 
    5110   0.85990205   -553.34428   -407.58871     274.0244 
    5120   0.85970492   -553.01926   -515.51161    281.79999 
    5130   0.85954065   -552.36931   -465.65311    280.19316 
    5140   0.85940802   -551.43165    -344.3069    278.16514 
    5150   0.85930008   -550.12567   -454.87987    285.75416 
    5160   0.85922501   -548.47975   -723.22076    301.22159 
    5170   0.85920005   -546.60121   -798.11592    307.22294 
    5180   0.85923481   -544.69409   -987.68734    311.25813 
    5190   0.85934254   -542.79892   -1159.0463    310.35599 
    5200   0.85953589   -540.92279    -1148.549    306.86345 
    5210   0.85981576    -539.0491   -903.59272    299.63977 
    5220   0.86016565   -537.04448   -478.88498    288.48399 
    5230   0.86055928   -534.75946     -501.798    307.49896 
    5240    0.8609944   -532.22036   -644.02054    326.22971 
    5250   0.86148078   -529.83757   -547.04371    316.26601 
    5260   0.86201206   -527.67203     -55.1515    287.76626 
    5270   0.86255963   -525.38669   -139.99078    305.29139 
    5280   0.86312356    -522.8469   -159.42354    315.07024 
    5290   0.86370656   -520.40501    89.549768    298.33056 
    5300   0.86429324   -517.98988    193.09137    286.81172 
    5310   0.86487754    -515.3851   -263.23159    304.25975 
    5320   0.86548814   -512.62107   -752.65203    322.08097 
    5330   0.86615846   -510.12119    -608.8874    317.11612 
    5340   0.86688279   -507.99183   -270.41183    322.74148 
    5350   0.86763566   -506.22579    127.31105    331.88705 
    5360   0.86838629   -504.93853    810.09199    315.14925 
    5370   0.86908851   -503.97889    1344.3978    299.12733 
    5380   0.86970145   -503.06246    1611.3211    300.74822 
    5390   0.87020369   -502.18928     1697.322    306.12244 
    5400   0.87058647   -501.41494     1730.244    315.21289 
    5410   0.87084601   -500.89362    1695.8891    324.47686 
    5420   0.87098328   -500.72583     1608.423    316.98901 
    5430   0.87100642   -500.96884    1102.4013    324.54607 
    5440   0.87094514   -501.63761     998.0098    313.88931 
    5450   0.87080821   -502.58341      1164.48    299.59915 
    5460   0.87058463   -503.83839    1108.3327    308.91753 
    5470   0.87027487    -505.4123    1159.4034    299.97903 
    5480   0.86987848   -507.46781    777.81274    307.41979 
    5490   0.86941798   -510.36272    390.52948     318.3953 
    5500   0.86892021   -514.30108    398.55423    308.72166 
    5510   0.86838875   -519.25278     205.8931     306.8795 
    5520   0.86783504   -524.83685    22.577477    295.46297 
    5530   0.86727359   -530.34623   -240.93164    295.63635 
    5540   0.86672289    -535.5495   -511.14131     302.3553 
    5550   0.86620008   -539.73436   -318.31236    282.16691 
    5560   0.86569734   -542.85457   -409.26141    289.85507 
    5570   0.86521845   -545.29608   -497.52268    295.71084 
    5580   0.86476908   -547.09194   -344.30079    282.15016 
    5590   0.86434305   -548.47244   -618.89346    298.49584 
    5600   0.86395361   -549.59391   -508.94357    291.98537 
    5610   0.86359866    -550.4507   -361.30333    280.20163 
    5620   0.86326892   -551.08188   -563.61197    294.75985 
    5630   0.86297375    -551.5623   -474.32204    292.86384 
    5640   0.86271173   -551.95729   -529.21208    289.52704 
    5650   0.86248631   -552.24229   -735.11063    292.50089 
    5660   0.86230991   -552.42618   -611.45296    293.07682 
    5670    0.8621751   -552.47946   -194.09794    280.05922 
    5680   0.86205724   -552.38048   -320.61753    292.27069 
    5690   0.86196119   -552.17214   -629.20938    303.27502 
    5700   0.86190915   -551.98735   -807.26284    297.63511 
    5710   0.86191497   -551.81861   -859.51517     296.1212 
    5720     0.861985   -551.62391   -932.01813    296.60039 
    5730   0.86212531   -551.39863   -1076.6198    296.52584 
    5740   0.86234707   -551.19695   -1354.7652    311.85913 
    5750   0.86266768   -551.16294    -1300.821    315.13881 
    5760   0.86308562   -551.35903   -945.57314    302.32601 
    5770    0.8635776   -551.63145   -492.62898    290.39306 
    5780   0.86411206    -551.8259   -134.92516    286.09724 
    5790     0.864663   -551.83916   -9.3617917     285.2273 
    5800   0.86522134   -551.66195   -74.272128    287.80946 
    5810   0.86578985   -551.32301   -135.03684    296.39707 
    5820   0.86637343   -550.95497   -191.74077    310.18861 
    5830    0.8669738   -550.60766    170.47025    290.98974 
    5840   0.86757249   -550.23309    58.116913    296.42338 
    5850   0.86817041   -549.78004    82.190268    301.75051 
    5860   0.86876548   -549.27474    476.49206     290.0916 
    5870   0.86933277   -548.66171    697.85053    291.60001 
    5880   0.86985311   -547.84926    900.11649    295.29054 
    5890   0.87031224   -546.90194    1018.1787    291.07858 
    5900   0.87070161   -545.76249    1001.6118     282.7669 
    5910   0.87102482   -544.34445    392.25151     303.4624 
    5920   0.87131873   -542.70102   -12.200462    314.16524 
    5930   0.87161409   -541.16285   -109.16067    321.05192 
    5940   0.87191796    -539.7988    65.146901    317.18078 
    5950   0.87222168   -538.67675    92.100892     316.1836 
    5960    0.8725189   -537.69852    324.05149    310.35103 
    5970   0.87279243   -536.83859    766.89147    302.10362 
    5980   0.87301322   -536.03476    922.62541    306.47944 
    5990   0.87316676   -535.20014    1065.3755    299.82584 
    6000   0.87324514   -534.40268    917.57954    307.39412 
    6010   0.87325531   -533.61142    762.77139    311.65653 
    6020   0.87321081   -532.94164    403.33247    310.69787 
    6030   0.87313577   -532.39398    125.67632    307.44523 
    6040   0.87304957   -531.97754    41.656716    312.65189 
    6050   0.87295721   -531.71542    238.06038    310.86882 
    6060   0.87284516   -531.64849    575.22854    305.14036 
    6070   0.87268882   -531.66605     909.4898    296.60191 
    6080   0.87246643    -531.7514    857.38453    305.53228 
    6090   0.87217781   -531.89509    794.50493    306.54354 
    6100   0.87183028    -532.2285    525.97374    311.69553 
    6110   0.87143906    -532.8512    496.49126    310.84041 
    6120   0.87100612   -533.66783    724.18004    294.66878 
    6130   0.87052131   -534.65611      324.719    306.50324 
    6140   0.87000541   -535.71485    269.80078    289.70535 
    6150   0.86946833    -536.7393    72.008012    284.23534 
    6160   0.86892262   -537.77662    -271.7904     299.5385 
    6170   0.86838908   -538.84426   -186.68688    296.68355 
    6180   0.86786671   -540.12455   -229.62031    305.32077 
    6190   0.86735357   -541.47922    185.77165    285.03678 
    6200   0.86682615   -542.76067    291.76517    275.70293 
    6210   0.86627812   -543.86856   -314.04311    291.05619 
    6220   0.86574823   -544.99813   -939.85219    306.79434 
    6230   0.86527968   -546.28085   -979.33596    296.08417 
    6240   0.86487967   -547.57135     -849.792    284.68291 
    6250   0.86454021   -548.86345   -868.43626    292.60741 
    6260   0.86426009   -550.08705   -665.59191    286.22484 
    6270   0.86402807   -551.29013   -555.92653    290.99886 
    6280   0.86383524   -552.44519   -438.22153    285.55717 
    6290   0.86367473   -553.46316   -537.24391    279.79792 
    6300   0.86355355    -554.3386   -776.71781    281.29892 
    6310   0.86348682   -554.93443   -692.68626    269.24635 
    6320   0.86347288   -555.23867   -874.93758     279.1804 
    6330   0.86352278   -555.33876     -1107.67    290.06958 
    6340   0.86365114   -555.21463   -925.67122    274.18018 
    6350   0.86385196   -554.85499   -1118.8779     281.5178 
    6360   0.86413294   -554.14543   -1019.5205    286.44307 
    6370   0.86449038   -553.18104   -819.97513    291.66231 
    6380   0.86491179   -551.98331   -854.45006    301.35255 
    6390   0.86539723   -550.64107   -761.12048    298.53794 
    6400   0.86594089   -549.19868   -436.13445    297.49448 
    6410   0.86651856   -547.54122    104.23265     291.3411 
    6420   0.86709591   -545.65879     160.5722     295.3549 
    6430   0.86766518   -543.51891    178.90127    298.08332 
    6440   0.86822376   -541.19385    415.66224    293.29901 
    6450   0.86875592   -538.66013    596.07984    294.07165 
    6460   0.86924856   -535.89842    577.97771    301.06981 
    6470   0.86970266   -533.03116    356.65044    312.60625 
    6480   0.87013111   -530.25062    385.86589    316.59393 
    6490   0.87053224   -527.77046    610.47886    310.46049 
    6500   0.87089145   -525.59132    767.69646    313.85578 
    6510   0.87119246   -523.64687    1348.1055     302.1204 
    6520   0.87139899   -521.91193     1564.574    305.54273 
    6530   0.87149326   -520.35384    1333.5901    323.77743 
    6540   0.87148452    -519.0963    1637.1777    306.49008 
    6550   0.87135988   -518.15567    1481.8829    303.38579 
    6560   0.87112605   -517.28551    1099.9928    303.69589 
    6570   0.87081106   -516.53902    524.12054    309.82429 
    6580   0.87045305   -515.90486    188.96529    302.84325 
    6590   0.87007994   -515.39361   -202.15447    308.20192 
    6600    0.8697183   -514.99537   -424.92385     310.6727 
    6610    0.8693838   -514.74665   -347.22137    298.76607 
    6620   0.86907424   -514.57019   -477.90337     301.7456 
    6630   0.86879707   -514.43226   -589.08109    308.10139 
    6640   0.86855958    -514.4355   -505.21944    308.80412 
    6650   0.86835713   -514.59128   -340.17194    303.20437 
    6660   0.86817882   -514.86053   -216.90343    299.72785 
    6670   0.86801602   -515.25077   -245.88077    312.00717 
    6680   0.86786696   -515.94398    18.323325    315.97211 
    6690   0.86771572   -517.07359    222.50146    308.80906 
    6700   0.86755049   -518.62484    -25.34314    306.32921 
    6710   0.86738653   -520.82156   -397.40804    319.59846 
    6720   0.86724538   -523.83769   -225.44712     309.3126 
    6730   0.86712077   -527.63312   -141.21062    306.19911 
    6740   0.86700515   -532.25869   -101.75085    312.24282 
    6750     0.866894   -537.24727    182.25689    292.13513 
    6760   0.86677064   -541.82189    195.52724    282.41692 
    6770   0.86663234   -545.88157    12.652136    289.52638 
    6780   0.86648956    -549.2461    92.255181    279.18113 
    6790   0.86634131   -551.77979   -69.911809    275.90872 
    6800   0.86619836   -553.69178   -373.90988    282.43184 
    6810   0.86608194   -555.16425   -710.65922     295.3907 
    6820   0.86601643   -556.50786    -1104.041    310.30053 
    6830    0.8660265   -557.78595   -917.08364    295.19715 
    6840   0.86610383   -558.84451   -586.81205    280.22265 
    6850   0.86622757   -559.62125    -654.7585    282.88707 
    6860   0.86640238   -560.13244   -1011.0452    284.10236 
    6870   0.86665181   -560.38537   -1194.3391    277.02819 
    6880   0.86699185   -560.45027   -1452.1378    294.03758 
    6890   0.86743816   -560.40682   -1431.1281    297.96944 
    6900   0.86799384   -560.39576   -1437.8401    298.57379 
    6910    0.8686587   -560.37864   -1327.4801     294.6535 
    6920   0.86942612   -560.33313   -1131.6291    287.90031 
    6930   0.87028061   -560.11386   -703.42236    280.05041 
    6940   0.87119393   -559.63032   -366.34571     283.0122 
    6950   0.87214211   -558.90735   -268.61296    289.47047 
    6960   0.87311558   -557.98507    29.143211    283.92773 
    6970     0.874096   -556.84605    140.67361    284.79798 
    6980   0.87507313   -555.42731    78.743044     288.5568 
    6990   0.87605259   -553.82011   -231.80304    302.31466 
    7000    0.8770536   -552.11505    -292.6237    294.58803 
    7010   0.87808429   -550.34316   -371.99271    294.19946 
    7020   0.87914866   -548.42671    -310.1065     306.6828 
    7030   0.88023876   -546.44735    277.59894    306.26485 
    7040   0.88131464   -544.49587    1096.2438    293.90476 
    7050   0.88231839    -542.4721    1693.5141    279.43131 
    7060   0.88320804   -540.21699     1585.637     286.1209 
    7070   0.88398727   -537.67168    1105.6532    298.99712 
    7080   0.88468956   -535.04537    588.42395    317.60798 
    7090   0.88534807   -532.58872    621.48988    321.43746 
    7100   0.88596407     -530.554    785.95986     314.3872 
    7110   0.88652899    -528.9077    454.49205    325.53733 
    7120   0.88705981   -527.63884     511.4219    319.85982 
    7130   0.88755559   -526.81043    753.54415    315.57918 
    7140    0.8879976   -526.22889    1057.6468    314.26454 
    7150   0.88836555   -525.99165    1091.0724    323.37044 
    7160    0.8886521   -526.02002    1445.3581    305.53654 
    7170   0.88883794   -526.31822    1333.9398     318.2589 
    7180   0.88892314   -526.95352    1336.5922    331.13206 
    7190   0.88890891   -528.10332    1409.2811    326.19576 
    7200   0.88879093   -529.75061    1394.7103    310.76097 
    7210   0.88857129   -531.54765    1188.0969    293.62008 
    7220   0.88826495   -533.39716    654.93835    296.73164 
    7230     0.887908    -535.3764    150.56122    303.98773 
    7240   0.88753752   -537.62788   -298.61303     305.7152 
    7250   0.88718635   -540.13709   -627.59877    299.58667 
    7260   0.88687998   -542.89765   -929.44217    298.68047 
    7270   0.88663765   -545.83105   -877.80254    291.23618 
    7280   0.88646067   -548.95847   -1100.2344    298.01863 
    7290   0.88636291   -552.43614   -1428.4547    303.35483 
    7300   0.88636702   -556.09982   -1494.1987    298.62837 
    7310   0.88648007   -559.88035   -1437.4009     296.0853 
    7320   0.88669849   -563.44194    -1204.113    285.50726 
    7330   0.88700711   -566.41907    -886.3979     268.9145 
    7340   0.88738495   -568.61911   -752.21795    266.53063 
    7350   0.88781906   -570.05629    -530.2792    264.20381 
    7360   0.88829551   -570.78552   -380.81066     259.8759 
    7370   0.88880633   -570.95102   -683.19103    265.58567 
    7380   0.88936865   -570.67599   -710.67055    264.69918 
    7390   0.88998754    -570.1241   -726.47319     276.0969 
    7400   0.89066325   -569.43391   -744.24296    285.68394 
    7410   0.89139669   -568.70058   -511.46514     274.9384 
    7420   0.89217516   -567.87312   -470.55905    276.57073 
    7430   0.89299494   -566.88602   -704.97645    285.79584 
    7440   0.89387282   -565.86281   -978.57891    292.67895 
    7450   0.89482859   -564.89378   -1125.4959    303.26755 
    7460   0.89587049   -563.98696   -711.52552     287.6404 
    7470   0.89697371   -563.07671   -396.91967    284.13998 
    7480   0.89811408   -562.00203   -208.64682    286.83939 
    7490   0.89927793   -560.76899    1.9507311    279.57992 
    7500   0.90045082   -559.33871    136.33428    281.71722 
    7510   0.90162055   -557.67174    360.60564    283.40965 
    7520   0.90277235   -555.81324    366.52178    290.40896 
[...]
  496990   0.88306309   -545.48728    149.76226    288.31735 
  497000   0.88413464   -546.14837    332.88531    284.68738 
  497010   0.88519187   -546.77361    331.98387    287.85904 
  497020   0.88623293   -547.24296    393.50235    272.90282 
  497030   0.88725769   -547.50724    9.3004998    284.53002 
  497040   0.88828888   -547.68897   -333.05984    305.81368 
  497050   0.88934868   -547.86228   -108.03704    288.23388 
  497060   0.89043059   -548.01871   -364.87791    289.90021 
  497070    0.8915469   -548.09584   -632.58098    298.39774 
  497080   0.89271779   -548.19655    -721.1511    303.04323 
  497090    0.8939483   -548.36351    -500.9767    307.71292 
  497100   0.89522438   -548.67786   -97.239805    306.67997 
  497110   0.89651578   -549.01786    516.23683    287.74147 
  497120   0.89778341   -549.34194    409.82935    299.61428 
  497130   0.89902873   -549.77331    98.596743     313.5516 
  497140   0.90027203   -550.43089    189.72402    304.65415 
  497150   0.90151013   -551.26683     336.3983    298.39197 
  497160   0.90273217   -552.18291    310.30289    302.08262 
  497170   0.90393739    -553.2659    267.44204    303.40085 
  497180   0.90512871   -554.47074    228.30459    301.64199 
  497190   0.90631074   -555.91354    71.854411    307.05178 
  497200   0.90749193   -557.47434     188.3434     293.8063 
  497210   0.90866964   -559.07723    -173.5292    291.61548 
  497220   0.90986727   -560.67633    -697.4954    296.89023 
  497230   0.91112047   -562.47696   -931.97932    306.65194 
  497240   0.91244396   -564.34231   -495.74753    291.58422 
  497250   0.91381244   -566.17166   -218.48106    295.08407 
  497260   0.91520329   -567.99426   -82.364692    294.35658 
  497270   0.91660652   -569.67767   -44.017615    279.89295 
  497280   0.91801935   -571.23966    -146.3924    291.39119 
  497290   0.91944267   -572.67515    343.22093    289.81697 
  497300   0.92084815   -573.99302    534.65216    293.57136 
  497310   0.92222106      -575.33     269.0344    306.01212 
  497320   0.92357688   -576.90463    71.425234     318.0603 
  497330   0.92492469   -578.80333    731.31889    303.80801 
  497340   0.92622263   -580.50451    1574.9943    273.03816 
  497350   0.92741492   -581.89885    1412.7029    278.38501 
  497360   0.92850862   -583.11935    731.45081     293.7869 
  497370   0.92954966   -584.43416    137.32324    304.74777 
  497380   0.93057785   -585.85603    239.67914    297.02617 
  497390   0.93158902   -587.28144    557.46146    293.63003 
  497400   0.93256018   -588.64656    852.59528    293.30084 
  497410   0.93346896   -589.95241    1282.4419    286.61544 
  497420   0.93428498   -591.05156    1691.8115    276.29678 
  497430   0.93498068   -591.92262    1708.1569    277.02499 
  497440   0.93555122   -592.58176    1594.4515    282.21217 
  497450   0.93600447   -593.06592    1415.1928    283.38064 
  497460   0.93635378   -593.35434    1312.6691    275.15056 
  497470   0.93660762   -593.37473     1205.526    272.51781 
  497480   0.93677361   -593.05267    994.90945     278.9253 
  497490   0.93686681   -592.37458    698.61232     282.0466 
  497500    0.9369084   -591.35854    347.41685    294.11326 
  497510   0.93692048   -589.99411    465.90938    286.17104 
  497520   0.93690025   -588.27563    434.66026    284.83848 
  497530   0.93684649   -586.01831    542.82267    286.53646 
  497540   0.93675062   -583.20954    940.54455      276.964 
  497550   0.93659201   -579.71437    460.12258    294.54937 
  497560   0.93639847   -575.52745   -137.97957     310.7053 
  497570   0.93621083    -571.2286   -252.32641    308.84685 
  497580   0.93603869   -567.26123     89.42766    304.58641 
  497590   0.93585627   -563.70694    778.13394    294.55652 
  497600   0.93562176   -560.53438    613.54745    312.04747 
  497610   0.93533848   -557.77538    591.45342    312.44455 
  497620   0.93501036   -555.63252      861.428    298.24247 
  497630    0.9346212   -553.88942    748.64537    311.44991 
  497640   0.93417551   -552.51833    439.47616    330.17758 
  497650   0.93369171   -551.67755    654.89059    313.33582 
  497660   0.93316121   -551.27961    839.84631    308.21938 
  497670    0.9325678    -551.0906    943.47917    310.89288 
  497680   0.93190352   -551.08672    1112.0698    296.87004 
  497690   0.93115601   -551.08437    1389.4016    282.72903 
  497700   0.93030659   -550.93317    1452.7935    286.10173 
  497710   0.92934963   -550.67456    1155.4897    303.83616 
  497720   0.92830328   -550.45263     1042.219     309.0149 
  497730   0.92717315   -550.37402    1682.6457    284.27591 
  497740   0.92592012   -550.24481    2094.1637    273.62472 
  497750   0.92451366   -549.83546    2120.0363    271.60509 
  497760   0.92295507   -549.08826    1487.9874    283.81037 
  497770   0.92128542    -547.9961     967.8847    287.47866 
  497780   0.91954479   -546.70796    601.19356    293.69878 
  497790   0.91776033   -545.25389    309.58956    300.66712 
  497800   0.91595322   -543.78058    341.67488    293.33383 
  497810   0.91412234   -542.30961    789.01788    277.32314 
  497820   0.91223952   -540.65832    987.17882    273.76948 
  497830    0.9102929   -538.64323    503.75199    295.42653 
  497840   0.90831104   -536.36928    446.85994    289.96801 
  497850   0.90630644   -534.09912    145.85737    300.40654 
  497860   0.90429802   -531.72824   -97.493185     312.0188 
  497870   0.90230314   -529.61918    132.18768    304.34523 
  497880   0.90031093   -527.81494    146.46023    306.04833 
  497890    0.8983196   -526.22086   -103.16587    318.04755 
  497900   0.89634729    -524.9329   -342.80188    317.99763 
  497910   0.89441451   -524.01868    -649.7837    311.23028 
  497920   0.89254335   -523.33517    -999.7336    309.47463 
  497930   0.89075963   -522.87919   -1423.3222    321.51742 
  497940   0.88909044   -522.69414    -1479.006    313.43254 
  497950   0.88754312    -522.7915   -1556.6873     313.9166 
  497960   0.88611985   -523.12193   -1502.0616    315.90933 
  497970   0.88481649   -523.62923   -1274.1244    297.52354 
  497980   0.88361916   -524.06343   -1220.1378    278.43447 
  497990   0.88252326   -524.18676   -1493.4053     281.2335 
  498000   0.88154436   -524.10024   -1763.9781    301.85187 
  498010   0.88069655   -523.97543   -1317.9852    291.68768 
  498020   0.87995487   -523.91605   -1308.0068    304.31874 
  498030   0.87931194   -523.86578   -1215.1367    304.45781 
  498040   0.87876426   -523.92083   -1244.4709     297.7042 
  498050   0.87831365   -523.95588     -1522.37    295.29956 
  498060   0.87797827   -523.97945   -1895.9384    303.43796 
  498070   0.87778303   -524.08165   -2172.7892    309.21188 
  498080   0.87774419   -524.28145   -1896.2238    296.41892 
  498090     0.877846   -524.48515   -1712.1766     298.8877 
  498100    0.8780727   -524.72862   -1692.9058    312.42229 
  498110   0.87841908   -525.13079   -1351.7875    308.03829 
  498120   0.87886158   -525.54161   -778.06545    286.82928 
  498130   0.87936304   -525.84838    -774.0054    295.40836 
  498140   0.87991599   -526.10074   -621.25628    300.66277 
  498150   0.88050947   -526.30773   -199.55367    290.73579 
  498160   0.88111673   -526.41865   -105.70266    300.71545 
  498170    0.8817273   -526.58574    -6.163446    312.87708 
  498180   0.88233224   -526.89556    394.30624    308.04911 
  498190     0.882907   -527.36388    591.64574    311.92247 
  498200   0.88343526   -527.97694    832.98903    305.77586 
  498210   0.88389991   -528.64655    1057.5577    303.03266 
  498220   0.88428413   -529.42675    1210.9998    310.29971 
  498230   0.88457564   -530.26969    1461.0847    299.14582 
  498240   0.88476415   -531.20444    928.81098    310.60859 
  498250    0.8848805   -532.32531    641.93354    317.29655 
  498260   0.88494737   -533.63683    785.20278    302.82222 
  498270   0.88495739   -534.96456     843.5606    294.10188 
  498280   0.88490842   -536.26428    481.03513    302.39299 
  498290   0.88482383   -537.63875    32.630373    311.17813 
  498300   0.88473485   -539.17964   -235.82007    316.48524 
  498310   0.88466363   -541.09285   -623.32984    326.61133 
  498320    0.8846359   -543.30517   -657.68317    309.66484 
  498330    0.8846571    -545.5092   -655.88953    299.38033 
  498340   0.88472621   -547.78335   -711.28678     311.9743 
  498350   0.88484322   -550.04335   -309.80047    299.87939 
  498360   0.88498395   -552.10621    -16.14686    290.12464 
  498370   0.88512412   -553.78791    339.79187    276.91465 
  498380   0.88524173   -554.97744    348.12855    270.89853 
  498390   0.88533471   -555.70763    71.349926    282.04807 
  498400    0.8854217   -556.20295   -307.95261    305.26969 
  498410   0.88552685   -556.73463   -332.03788    312.11699 
  498420   0.88565341   -557.26165   -9.7487756    292.45723 
  498430   0.88578473    -557.7757   -222.05665    302.70193 
  498440   0.88592854   -558.18285   -172.69059     298.7545 
  498450   0.88608696   -558.58247   -274.82816    298.58834 
  498460   0.88626281   -558.87479   -94.512548    292.02414 
  498470   0.88644362   -559.05731    330.94538    282.73804 
  498480   0.88659928    -558.9649    793.44115    266.21564 
  498490   0.88670063   -558.54839    652.81531    274.56096 
  498500   0.88675352   -557.89447    355.47744    292.60989 
  498510   0.88677647   -557.16932    548.72988    281.66242 
  498520   0.88676087   -556.31887    557.57331    272.16968 
  498530   0.88670729   -555.26263    -1.625145    291.43509 
  498540   0.88665072    -554.1215   -314.17733    298.14979 
  498550   0.88661581   -553.07615   -408.46008    299.43106 
  498560    0.8866066   -552.07036   -38.743777    289.59068 
  498570   0.88660171    -551.1139    164.49532    292.83931 
  498580   0.88658344   -550.05238    508.16186    283.07763 
  498590   0.88653024   -548.92115    578.07167    288.71077 
  498600   0.88643537   -547.68661    298.71542    308.72771 
  498610   0.88631706   -546.56424    116.43208    309.32992 
  498620   0.88619043   -545.64528   -18.942989    306.79836 
  498630   0.88606518   -544.91196   -248.46948    314.60957 
  498640   0.88595641   -544.42999   -413.04973    322.85365 
  498650   0.88587481   -544.28354   -260.27794    315.46702 
  498660   0.88581405   -544.43596   -185.91215    305.74048 
  498670   0.88576735   -544.73355   -205.00851    306.27164 
  498680   0.88573489   -545.16714    -199.7998    304.00657 
  498690   0.88571753   -545.64705   -252.02153    288.42159 
  498700   0.88572184     -546.011   -643.24077    284.03314 
  498710   0.88577347   -546.22059   -1114.7584    296.72063 
  498720   0.88590459   -546.47256   -1400.9692    310.16194 
  498730   0.88613608   -546.85365   -1313.5067    296.86366 
  498740   0.88646623   -547.30106   -1383.0575    292.55123 
  498750   0.88689708   -547.75368   -1408.8762    301.01735 
  498760   0.88742794   -548.31052   -1051.3981    302.06439 
  498770   0.88803541   -548.98348   -465.56618    298.40331 
  498780   0.88867926   -549.85753   -53.907056    305.86598 
  498790   0.88932851    -550.9958    148.26831     301.7511 
  498800   0.88997093   -552.51067   -111.05802    306.88693 
  498810   0.89061857   -554.46829    7.8017241    300.94383 
  498820   0.89126725   -556.84934    93.771167    301.31716 
  498830   0.89191011   -559.79987    2.5533874    308.98958 
  498840   0.89254961   -563.27714    387.02418    302.07551 
  498850   0.89316156   -566.88416    883.78864    284.68504 
  498860   0.89371346   -570.32895      909.991    278.48734 
  498870   0.89420043   -573.35393    712.60617    269.47642 
  498880   0.89463755   -575.94949    221.37086    281.58251 
  498890   0.89505464    -578.3437    115.48495    293.75412 
  498900   0.89546129   -580.48266    330.91655    285.00266 
  498910   0.89584632   -582.23975    311.84846    278.09047 
  498920   0.89621007   -583.61834    142.39334    281.60517 
  498930   0.89656295   -584.73095    97.365138    282.78109 
  498940   0.89690695   -585.53001    333.62451    275.63498 
  498950   0.89722792   -585.98102    432.93002    270.82652 
  498960   0.89751984   -586.08457    176.19043    279.39925 
  498970   0.89779783   -585.93666   -43.187788    291.38693 
  498980   0.89807714   -585.68133    3.6399827    293.35141 
  498990    0.8983557   -585.30923    212.19105    284.89612 
  499000   0.89862038   -584.77283    323.53526    281.87327 
  499010   0.89886189   -584.04065    348.19815    291.91578 
  499020   0.89907642   -583.12279    495.63563    286.82574 
  499030   0.89925829   -582.08199     199.3155    297.35155 
  499040   0.89942384   -580.92874    49.226759    301.97519 
  499050    0.8995839   -579.75448    250.52623    287.09776 
  499060    0.8997288   -578.45908    118.22215      293.056 
  499070   0.89986458   -576.96166   -160.64284    307.50702 
  499080   0.90001092   -575.42969   -267.16565    305.82015 
  499090   0.90017619   -573.92407   -158.16973    302.16021 
  499100   0.90035258   -572.39491    103.88216    303.53786 
  499110   0.90051932    -570.7913     605.2761    296.85488 
  499120   0.90064466   -569.03127    691.15352    297.65091 
  499130   0.90072071   -567.08857    581.95824    300.51745 
  499140   0.90075134   -564.95245    871.51211    293.14244 
  499150   0.90071653   -562.58975    1455.6441    272.44912 
  499160   0.90058051   -559.77218    1123.2801    290.95576 
  499170   0.90036136   -556.24554    425.89519    317.62513 
  499180    0.9001032   -552.63116    548.57843    301.97249 
  499190   0.89980641   -549.16502    390.06546    308.24528 
  499200   0.89947911   -545.78113    222.87524    317.90274 
  499210   0.89913172   -542.77768     370.0176    320.33029 
  499220   0.89875438   -540.29056     725.7073    309.87271 
  499230   0.89832675   -538.29355    450.75112    320.50843 
  499240   0.89786535   -536.76312    -238.5658     338.8207 
  499250   0.89741417   -535.90644    -234.5712    321.33983 
  499260   0.89697769   -535.59646    70.059403     310.0463 
  499270   0.89653389   -535.51217    328.88227    308.27907 
  499280   0.89606604   -535.60635    232.54801    310.38941 
  499290   0.89557863   -535.85462    176.87075    305.82226 
  499300   0.89507433   -536.16752    387.42223    298.74987 
  499310   0.89454073   -536.47105     315.2109    301.70416 
  499320   0.89398182    -536.8466   -8.1328785    316.91168 
  499330   0.89341371    -537.3266    446.49088     298.1778 
  499340   0.89281214   -537.81262    695.05992    293.68539 
  499350   0.89215955   -538.20543    416.96113    298.85385 
  499360   0.89147195   -538.48164    254.21115    288.49348 
  499370   0.89076382   -538.67646   -93.971505    299.63037 
  499380   0.89005566    -538.7985   -144.55073    299.40885 
  499390   0.88935459   -538.95118   -182.05209    300.23384 
  499400    0.8886624   -539.12772   -161.88375    302.00511 
  499410    0.8879801   -539.32802   -261.60007    299.27565 
  499420   0.88731454   -539.52796   -498.96772    298.24332 
  499430   0.88668059   -539.69985   -620.69377     293.9779 
  499440   0.88608791   -539.82293   -699.61928    300.69047 
  499450   0.88554132   -540.02754    -638.6952    315.94029 
  499460   0.88503224   -540.37463    178.81884    295.61605 
  499470   0.88450916   -540.72839    829.95029    278.20017 
  499480   0.88392597   -540.85525    764.95701    282.17527 
  499490   0.88328393   -540.74841    353.00467    290.64825 
  499500   0.88261119    -540.5064    -10.08865    295.75515 
  499510   0.88193294   -540.19854     -26.9415    293.06379 
  499520   0.88125274   -539.84528   -11.864896    293.98898 
  499530   0.88057031   -539.41778   -216.49828    299.53023 
  499540   0.87989898   -538.94506   -460.94548    296.47697 
  499550   0.87925912   -538.46667   -953.96675    310.37263 
  499560   0.87868116   -538.09105   -961.28285    317.71407 
  499570   0.87816801   -538.00122   -643.17383    312.44049 
  499580   0.87769805   -538.13299   -312.76912    302.18197 
  499590   0.87724814   -538.41136   -65.887054     303.6953 
  499600    0.8767985   -538.82737    318.37087    300.29244 
  499610   0.87632229   -539.30936    719.15454    282.28876 
  499620   0.87579493   -539.74657    353.87741    297.00029 
  499630   0.87523486   -540.25552    100.88302    306.05647 
  499640   0.87465987   -540.91352     331.0708    284.58775 
  499650   0.87405823   -541.56745    342.72134    278.11355 
  499660   0.87342617   -542.11343    237.57228    290.63008 
  499670   0.87277029   -542.69094    106.77696    303.64811 
  499680   0.87210154   -543.43502   -161.13637    306.98711 
  499690   0.87144009   -544.46188   -585.48828     309.2872 
  499700   0.87081419   -545.74843   -789.91597    302.26876 
  499710   0.87024183   -547.25614   -994.57303    295.01049 
  499720   0.86973715   -548.82365   -1064.5991    292.03293 
  499730   0.86930648   -550.48854    -1121.524    297.98986 
  499740   0.86895371   -552.23004   -1093.2399    298.65911 
  499750   0.86867795   -554.12688   -1107.2837    301.27666 
  499760   0.86847758    -556.0361   -671.74716    285.77319 
  499770   0.86832539   -557.79282   -194.25582    278.72273 
  499780   0.86818594   -559.30798    188.11612    279.85856 
  499790   0.86803145   -560.59312    351.08161    280.89777 
  499800   0.86785046   -561.68631    168.11972    288.84017 
  499810   0.86765331    -562.7442    86.788354    298.90238 
  499820   0.86744209   -563.73833    714.14734    282.49641 
  499830   0.86718029   -564.50985    888.33434    270.01692 
  499840   0.86685413   -564.98399    339.29353    282.12109 
  499850   0.86649775   -565.24568   -273.73896    296.43825 
  499860   0.86615353   -565.42139   -440.52543    286.50895 
  499870   0.86583727    -565.4092   -410.90488    270.97488 
  499880   0.86554947   -565.10803   -624.72397    279.81234 
  499890   0.86530108   -564.45665   -528.24938    277.92756 
  499900   0.86508821   -563.49689   -405.40967    275.93795 
  499910   0.86490443   -562.15701   -578.14683    282.78092 
  499920   0.86476166   -560.48564   -936.08776    296.05274 
  499930    0.8646845    -558.5907   -1147.6211    299.06086 
  499940   0.86468993   -556.64692   -1199.4588    301.11241 
  499950   0.86478186   -554.64044   -985.02628    298.84098 
  499960   0.86494799   -552.58536   -761.34319    298.31931 
  499970   0.86517289   -550.47417   -580.86219    300.57258 
  499980   0.86544266   -548.35268   -159.15455    292.35871 
  499990   0.86572883   -546.15531    128.69749    299.24456 
  500000    0.8660114   -543.89185    159.64012     306.1559 
Loop time of 3170.39 on 3 procs for 500000 steps with 375 atoms

Performance: 13.626 ns/day, 1.761 hours/ns, 157.709 timesteps/s
99.5% CPU use with 3 MPI tasks x 1 OpenMP threads

MPI task timing breakdown:
Section |  min time  |  avg time  |  max time  |%varavg| %total
---------------------------------------------------------------
Pair    | 1826.2     | 2197.1     | 2517.4     | 606.8 | 69.30
Bond    | 0.55504    | 0.59854    | 0.66937    |   6.5 |  0.02
Kspace  | 258.22     | 578.14     | 948.88     |1182.2 | 18.24
Neigh   | 77.937     | 77.943     | 77.953     |   0.1 |  2.46
Comm    | 80.939     | 82.123     | 84.208     |  16.3 |  2.59
Output  | 1.4634     | 2.3685     | 4.1693     |  82.7 |  0.07
Modify  | 214.31     | 221.47     | 225.73     |  34.2 |  6.99
Other   |            | 10.61      |            |       |  0.33

Nlocal:    125 ave 131 max 118 min
Histogram: 1 0 0 0 0 0 1 0 0 1
Nghost:    5854.67 ave 5889 max 5801 min
Histogram: 1 0 0 0 0 0 0 0 1 1
Neighs:    66390.7 ave 74456 max 60851 min
Histogram: 1 0 1 0 0 0 0 0 0 1

Total # of neighbors = 199172
Ave neighs/atom = 531.125
Ave special neighs/atom = 2
Neighbor list builds = 20824
Dangerous builds = 0

#write_restart wat.restart
Total wall time: 0:53:22
