
variable systemNsize equal 5
variable rndSeed equal 1234
variable Nrun equal 500000
variable Nstab equal 5000
variable NdumpStats equal 10
variable NdumpFrames equal 10000
variable Text equal 298.0
variable Pext equal 1.0

units real
    # g/mol, A, fs, Kcal/mol, K, atm, g/cm^3
atom_style full
read_data SPCE3.data
  orthogonal box = (0 0 0) to (3.1 3.1 3.1)
  1 by 1 by 2 MPI processor grid
  reading atoms ...
  3 atoms
  scanning bonds ...
  2 = max bonds/atom
  scanning angles ...
  1 = max angles/atom
  reading bonds ...
  2 bonds
  reading angles ...
  1 angles
  2 = max # of 1-2 neighbors
  1 = max # of 1-3 neighbors
  1 = max # of 1-4 neighbors
  2 = max # of special neighbors
  special bonds CPU = 0.000164986 secs
  read_data CPU = 0.00262809 secs

replicate ${systemNsize} ${systemNsize} ${systemNsize}
replicate 5 ${systemNsize} ${systemNsize}
replicate 5 5 ${systemNsize}
replicate 5 5 5
  orthogonal box = (0 0 0) to (15.5 15.5 15.5)
  1 by 1 by 2 MPI processor grid
  375 atoms
  250 bonds
  125 angles
  2 = max # of 1-2 neighbors
  1 = max # of 1-3 neighbors
  1 = max # of 1-4 neighbors
  2 = max # of special neighbors
  special bonds CPU = 0.000257015 secs
  replicate CPU = 0.0019989 secs

include SPCE3.pot
# Original model from Berendsen et al, J Phys Chem 91:6269 (1987)
# Charges and geometry are specified in the ".data" file.

mass 1 1.008 # H
mass 2 15.9994 # O

#pair_style lj/cut/coul/dsf 0.1 12.0
#pair_style lj/cut/coul/long 12.0
    # LJ_Rcut (Coul_Rcut)
pair_style lj/cut/tip4p/long 2 1 1 1 0.15 12.0

pair_modify tail yes
    # assumtions and approximations:
    # 1) 3d bulk homogeneous liquid (+)
    # 2) RDF is unity beyond the cutoff (?)
    # 3) It's computed at the begining of the run, so N of particles shouldn't be changed (+)
    # 4) atoms don't feel additional energy but it's added to the PE etc
kspace_style pppm/tip4p 1.0e-5
#kspace_style pppm 1.0e-5
    # accuracy - desired relative error in forces

pair_coeff 1 1 0.00000 0.000
pair_coeff 1 2 0.00000 0.000
    # TODO - I would put here the sizes of H and O atoms instead of one big LJ repulsion from the O atom. What "e" to choose is still a question.
pair_coeff 2 2 0.1550 3.1536
    # epsilon, sigma, [LJ_Rcut, [Coul_Rcut]]
    # distance between H and O is 1.0 so 3.166 > 1.0 accounts for the size of a molecule as a whole
    # I guess the major part in forces inside a molecule are indeed due to OH and HOH (angle) bondings, so computing LJ and Coul for them would be practically a waste of time so it may be ommitted. So I see only an optimizational reason to set LJ coefs to 0 for H atoms inside a molecule. However here (as far as I understand) we set all LJ coefs to 0. I understand LJ is a short-rage potential so its contribution can be neglegible compared to Coul, but it's not obvious for me why it actually is.
    # TODO - there might be a more correct way to ommit unnecessary interaction by using special_bond

bond_style harmonic
    # E = k(r-r0)^2
bond_coeff 1 0.0 1.0
    # bondID k r0
    # ? - how does k=0 make sense?
    # Is this to formaly bond atoms but actual bonding is done by rattle?

angle_style harmonic
angle_coeff 1 0.0 104.52
    # ? - same, how does k=0 make sense?


velocity all create ${Text} ${rndSeed}
velocity all create 298 ${rndSeed}
velocity all create 298 1234

fix removeMomentum all momentum 1 linear 1 1 1 angular
    # 1 - adjust the momentum every 1 timesteps
    # linear 1/0 1/0 1/0 - zero the P_x/y/z
    # angular - zero angular momentum (TODO - add "angular" here?)
    # scale - scale velocities after the adjustment so T is conserved (TODO - add "scale" here?)

fix stab_iso all npt temp ${Text} ${Text} $(50.0*dt) iso ${Pext} ${Pext} $(500.0*dt)
fix stab_iso all npt temp 298 ${Text} $(50.0*dt) iso ${Pext} ${Pext} $(500.0*dt)
fix stab_iso all npt temp 298 298 $(50.0*dt) iso ${Pext} ${Pext} $(500.0*dt)
fix stab_iso all npt temp 298 298 50 iso ${Pext} ${Pext} $(500.0*dt)
fix stab_iso all npt temp 298 298 50 iso 1 ${Pext} $(500.0*dt)
fix stab_iso all npt temp 298 298 50 iso 1 1 $(500.0*dt)
fix stab_iso all npt temp 298 298 50 iso 1 1 500
    # Tstart,Tstop = external temperature at start/end of run
    # Tdamp = temperature damping parameter (time units)
    # temp - for thermostat, iso - for barostat

fix stab_constrain all rattle 1.0e-5 100 0 b 1 a 1
  0 = # of size 2 clusters
  0 = # of size 3 clusters
  0 = # of size 4 clusters
  125 = # of frozen angles
  find clusters CPU = 0.000146151 secs
    # fix ID group-ID shake tol iter N constraint1 value1 ...
    # iter - max # of iterations in each SHAKE solution
    # print SHAKE statistics every N many timesteps (0 = never)
    # b - bonds, a - angles
    # b 1 - bonds of type 1
    # a 1 - bonds of type 1
    # shake adds forces to make the displacement satisfy constraints - e.g. |r_ij|=d
    # rattle does the same and additionally it refines velocities - e.g. (|r|)'_t = 0.
    # *should be defined after other force- and v- modifiers since it doesn't account for them

thermo_style custom step density press temp
thermo ${NdumpStats}
thermo 10
run ${Nstab}
run 5000
PPPM initialization ...
  extracting TIP4P info from pair style
  using 12-bit tables for long-range coulomb (src/kspace.cpp:332)
  G vector (1/distance) = 0.258189
  grid = 12 12 12
  stencil order = 5
  estimated absolute RMS force accuracy = 0.0031521
  estimated relative force accuracy = 9.49246e-06
  using double precision FFTW3
  3d grid and FFT values/proc = 4693 864
Neighbor list info ...
  update every 1 steps, delay 10 steps, check yes
  max neighbors/atom: 2000, page size: 100000
  master list distance cutoff = 14.3
  ghost atom cutoff = 14.3
  binsize = 7.15, bins = 3 3 3
  1 neighbor lists, perpetual/occasional/extra = 1 0 0
  (1) pair lj/cut/tip4p/long, perpetual
      attributes: half, newton on
      pair build: half/bin/newton
      stencil: half/bin/3d/newton
      bin: standard
Per MPI rank memory allocation (min/avg/max) = 9.495 | 9.496 | 9.497 Mbytes
Step Density Press Temp 
       0    1.0041715    21924.205    294.20229 
      10    1.0006845    17284.342    496.39381 
      20   0.99234993   -3121.4344    1234.4024 
      30   0.98427239    -5319.917    1199.8981 
      40   0.97789288    -2823.787    933.03425 
      50   0.97259448   -1874.0936    796.48926 
      60    0.9680008   -1695.5063    722.42358 
      70   0.96404508   -1865.9126    683.38115 
      80   0.96075432   -2256.6673    659.36749 
      90   0.95818064   -2570.4204    655.04849 
     100   0.95644669   -3550.7898    668.78926 
     110   0.95570988   -2003.3519    553.15384 
     120   0.95565207   -2670.7478    571.14164 
     130   0.95629662   -2289.4614     531.4144 
     140   0.95760861   -2294.7219    488.80966 
     150   0.95951841   -1913.1767    424.07343 
     160   0.96196763   -2743.2027    445.04482 
     170   0.96509183   -2494.3368    415.39828 
     180   0.96890451   -3504.1985    445.64669 
     190   0.97355261   -3092.4897    420.85796 
     200   0.97893222   -1488.3311    387.03676 
     210   0.98457315   -455.71408    368.84392 
     220   0.99015623   -467.85391    381.91681 
     230   0.99563944   -226.60702    359.80947 
     240    1.0009769   -426.97947    363.51547 
     250    1.0061802   -269.73776    340.52559 
     260    1.0112307    -443.9745    316.84492 
     270    1.0161612   -754.62194    316.99772 
     280     1.021055   -1018.5073    305.60712 
     290    1.0259923   -1273.1824    313.04382 
     300    1.0309998   -586.11876    300.21355 
     310    1.0359302   -324.74795    314.21169 
     320    1.0406634    378.54986    281.58558 
     330    1.0450741    24.158914    306.70803 
     340    1.0491993    697.80936    294.36373 
     350    1.0529199    677.87764    291.53044 
     360     1.056263    292.17307    318.36577 
     370    1.0592858    1770.6501    279.63516 
     380    1.0616874    2190.9845    276.15741 
     390    1.0633857    944.80454    291.47651 
     400    1.0647002    559.24686    276.80363 
     410    1.0658046    336.48254    285.55108 
     420    1.0667509    223.42705    284.80922 
     430    1.0676182   -450.77811    290.98584 
     440    1.0685554   -389.57059    282.30077 
     450    1.0695585    244.41359    270.27293 
     460     1.070468    833.29915    279.78259 
     470    1.0710742    2153.3583    256.63294 
     480    1.0710865    1830.3555    279.22293 
     490    1.0705618    1316.0033     280.2726 
     500    1.0696782    610.31993    294.55165 
     510    1.0686048     816.9379    282.26207 
     520    1.0673203    1025.8408    282.97345 
     530    1.0657653    992.06021    291.15243 
     540    1.0639568    684.52654    301.51291 
     550    1.0619868    656.84108    288.22977 
     560     1.059867    272.71333    299.61944 
     570    1.0577186   -401.95765     307.2338 
     580    1.0557216   -950.76893    322.70514 
     590    1.0540116   -723.20135    317.91138 
     600    1.0525561   -775.53934    327.21526 
     610    1.0513204   -230.12833    312.06218 
     620    1.0501706    296.16293    300.14809 
     630    1.0489874   -175.93721    325.23946 
     640    1.0478652   -691.73552    320.25037 
     650    1.0469528    -1207.371    304.80416 
     660    1.0464441    -2677.569    328.86791 
     670    1.0466699   -2446.4346    316.06756 
     680    1.0476087   -1814.5061    308.96781 
     690    1.0490429   -538.78547    295.03025 
     700    1.0506342    396.84741    297.45167 
     710    1.0520913    904.58701     289.0548 
     720    1.0532755    1275.2797     277.8771 
     730    1.0540704    1697.5054    278.73592 
     740    1.0543673    1709.1372    289.85094 
     750    1.0541257     2298.293     274.0632 
     760    1.0532435    2106.5399    291.22519 
     770    1.0517277    2257.0091    272.78793 
     780    1.0496067    1131.6391    291.25837 
     790    1.0471342    769.71433    281.56002 
     800     1.044491   -245.12798    301.04717 
     810     1.041901    109.79921     285.0557 
     820    1.0393356   -297.13878    298.68109 
     830    1.0368794   -772.39604    290.34412 
     840      1.03468   -1261.6531    281.75883 
     850     1.032881   -1997.8991    314.12826 
     860    1.0316608   -1737.6006    305.51569 
     870    1.0309565   -1435.7728    290.99377 
     880    1.0306847   -1331.5104    314.90069 
     890    1.0307809   -500.67926    303.42342 
     900    1.0310397   -324.05164    316.13125 
     910    1.0313935    -251.9171    318.58086 
     920    1.0318169    -277.4856    304.53203 
     930     1.032332    -694.8771    316.34037 
     940    1.0330227   -498.52482    316.71941 
     950    1.0338652   -349.06146    305.92476 
     960    1.0348091   -368.36739    298.13315 
     970    1.0358566   -592.27486    308.61265 
     980    1.0370647   -429.74207    291.08424 
     990    1.0383992   -668.25722    305.93342 
    1000    1.0399161   -669.91374    302.22702 
    1010    1.0416368   -818.41379    298.94065 
    1020    1.0435738   -502.36222    280.25409 
    1030    1.0456635   -334.72034    285.94675 
    1040    1.0478586   -750.49775    289.85034 
    1050    1.0502802   -1426.8987     302.8829 
    1060    1.0530892   -1249.5168    291.25756 
    1070    1.0562641   -871.84619     290.1754 
    1080    1.0596955    -877.8154    294.70916 
    1090    1.0633536   -474.91916     271.6674 
    1100    1.0671706   -777.85838    289.07628 
    1110    1.0711497    148.15667    283.26264 
    1120    1.0750804    472.45659    285.21783 
    1130    1.0788516     143.1295    284.09396 
    1140     1.082548   -26.559796    301.90594 
    1150    1.0861763    911.38649    294.22313 
    1160    1.0895027    1715.2329    296.62283 
    1170    1.0922683    2734.6768    290.42922 
    1180    1.0942027    3478.2667    291.00538 
    1190    1.0951258    2473.6271    316.81051 
    1200    1.0953052    1522.4205    322.93077 
    1210    1.0950012    1880.7402    307.93705 
    1220    1.0941679    2120.6026    309.40275 
    1230    1.0927294    1754.9924    301.64801 
    1240    1.0908173    964.59106    304.69812 
    1250     1.088631    882.41074    298.86376 
    1260    1.0862504   -95.692934    309.47069 
    1270    1.0839175   -258.13039    301.69789 
    1280    1.0816817    173.23724    298.74509 
    1290    1.0794424    489.05542    292.54962 
    1300    1.0771369   -370.46216    310.44561 
    1310    1.0749339   -190.64475    278.82001 
    1320    1.0728629   -500.34598    303.83636 
    1330    1.0709317    -81.19566    284.02343 
    1340    1.0691025    -557.1342    295.49528 
    1350    1.0674398   -380.10198    299.55966 
    1360    1.0659013    90.623488    308.97339 
    1370    1.0643942   -132.97281    290.13813 
    1380    1.0629409   -354.22402    291.02551 
    1390    1.0616121   -85.877804    279.94923 
    1400    1.0603576   -716.47917    285.93265 
    1410    1.0593324   -1206.6194    285.27779 
    1420    1.0586667   -1141.2598    279.66035 
    1430    1.0583585   -1357.4319    289.80192 
    1440    1.0584315   -1390.2775    300.54075 
    1450    1.0589018   -1090.5338    304.19144 
    1460    1.0596801   -797.18512    290.95751 
    1470    1.0607041   -1233.4643    321.13507 
    1480    1.0620273   -566.33614    315.51892 
    1490    1.0635168   -202.10883    315.63533 
    1500    1.0650493   -180.42831    302.86229 
    1510    1.0666289   -619.17857    311.38055 
    1520    1.0683618   -849.61687    334.34718 
    1530    1.0702803    120.44361    312.55381 
    1540    1.0721541    743.67641    298.73167 
    1550    1.0737857    1060.0213    296.18055 
    1560    1.0750861    1347.8221    298.55943 
    1570    1.0759528    2074.6448     279.0801 
    1580    1.0762396    1550.1832    282.33668 
    1590    1.0760777    349.57017    311.90166 
    1600    1.0757919    16.040968    310.28115 
    1610     1.075493    343.29101    286.49897 
    1620     1.075103      306.142    305.40039 
    1630    1.0745962    1243.6061    290.78354 
    1640    1.0737506    1245.0656    289.74737 
    1650    1.0725936    -178.7665    304.77395 
    1660    1.0714466   -101.36592    290.16456 
    1670    1.0703698   -740.13881    305.47027 
    1680    1.0695088    -1041.567    290.20655 
    1690    1.0689858   -1585.6958    302.37258 
    1700    1.0688985   -1198.2271    284.44876 
    1710    1.0691738   -838.03386    277.43031 
    1720    1.0696887   -929.34048    282.05986 
    1730    1.0704903   -1652.3343    306.70351 
    1740    1.0717319   -1143.4581    297.55356 
    1750    1.0732952   -287.43246    288.85539 
    1760    1.0749459   -71.678815    310.63078 
    1770    1.0765776    402.60232    292.05385 
    1780    1.0780965    714.12595     311.3234 
    1790    1.0793423     2342.222    296.92739 
    1800     1.079923    2702.5865    291.21691 
    1810    1.0797442    1297.0148    309.67357 
    1820    1.0791588      751.421    300.68692 
    1830    1.0783755    39.659317    308.71501 
    1840    1.0775683   -302.84974    310.94281 
    1850    1.0768276    207.29964    293.64136 
    1860    1.0760646   -280.82274     308.0978 
    1870    1.0753813   -538.44303    301.72695 
    1880    1.0748683   -788.56483    288.36972 
    1890    1.0745949   -1201.9648    294.84637 
    1900    1.0746592   -902.42805    264.41017 
    1910    1.0750133    -1389.166    278.75385 
    1920    1.0757556    -1500.809    290.18278 
    1930    1.0769034   -635.54679    268.98311 
    1940    1.0782703   -811.49497    282.01244 
    1950    1.0798423   -406.42249    277.67106 
    1960    1.0815395   -37.867681    295.26978 
    1970    1.0832127    833.14439    277.99645 
    1980    1.0846862    401.40031    289.01747 
    1990    1.0860334   -20.885605    304.72897 
    2000    1.0873649    74.816152    307.92811 
    2010    1.0886612    510.28135    313.11437 
    2020    1.0897789    1463.1728     303.3014 
    2030    1.0904764    1839.5562    326.95577 
    2040    1.0906015    2592.3923    321.95857 
    2050     1.089981    2706.5043    325.49511 
    2060     1.088581     2200.893    338.36824 
    2070    1.0865458    1503.1125    337.09859 
    2080    1.0840715    1102.6186    321.14046 
    2090    1.0812562    1388.3694    287.65326 
    2100    1.0781104    97.654159    292.56186 
    2110    1.0749438   -1237.7206    291.57489 
    2120    1.0721695   -2143.0893    283.44367 
    2130    1.0700314   -2421.2988    283.00019 
    2140    1.0686128   -2439.4275     293.6649 
    2150     1.067907   -1944.3985    283.33827 
    2160    1.0677788   -1643.0151    288.36089 
    2170     1.068123   -1104.8901    303.40113 
    2180    1.0687717   -33.362398    300.07951 
    2190    1.0694157    1136.5599    288.08333 
    2200    1.0697421    1461.1546    303.42265 
    2210    1.0696299    1701.3734    277.53106 
    2220    1.0690561    801.26054    288.30422 
    2230     1.068239    156.92323    294.82626 
    2240    1.0673921    -630.3765    288.06428 
    2250    1.0667218   -1115.4108     285.6063 
    2260    1.0663801    -1355.702    293.99596 
    2270    1.0664234    -1174.986    285.97623 
    2280    1.0668352   -1367.8131    281.78747 
    2290    1.0676454   -1644.2842     297.1982 
    2300    1.0689304   -1556.5474    319.07138 
    2310    1.0706296   -182.81729    296.41819 
    2320    1.0724074    555.54141    285.05986 
    2330    1.0740597   -82.779272    306.76053 
    2340    1.0757058     175.2483    311.88345 
    2350    1.0772953    821.42716    306.26662 
    2360    1.0786621    529.45376    319.53755 
    2370    1.0798437    882.41674    316.43517 
    2380    1.0807552     1506.188    305.67619 
    2390    1.0812394    1341.5679    308.60176 
    2400    1.0813303    871.36499     312.3405 
    2410    1.0811469    895.54085     291.6215 
    2420    1.0807511   -498.10704    313.07961 
    2430    1.0804622   -815.44596    298.95553 
    2440    1.0804131   -803.94462    296.58949 
    2450    1.0805874   -474.65407    297.61779 
    2460    1.0808825    219.63234      284.283 
    2470    1.0811323    217.15529    292.11226 
    2480    1.0813089    234.96072    302.32859 
    2490    1.0814166    214.07231    297.93891 
    2500    1.0814692   -36.044167     308.2027 
    2510    1.0815003    221.50788    301.61596 
    2520    1.0814776    123.83116    296.84376 
    2530    1.0814231   -330.24951    303.95209 
    2540    1.0814605   -584.77814    291.98167 
    2550    1.0816726   -818.87898    277.89805 
    2560    1.0821208      -745.66    264.22999 
    2570     1.082804   -1173.6534    273.42983 
    2580    1.0838519   -1934.6685    286.38235 
    2590    1.0854549   -1495.4792    273.07349 
    2600    1.0875252   -1153.4128     283.3501 
    2610    1.0899431   -499.60733    280.09261 
    2620    1.0925494   -275.09682    288.44297 
    2630    1.0952809   -607.81461    299.40368 
    2640     1.098204   -205.59281    302.35142 
    2650    1.1011877    1127.1903    291.34749 
    2660    1.1038981    1689.5832    295.35043 
    2670    1.1061457    1717.1164    304.87134 
    2680    1.1078902    2099.3983    315.57851 
    2690     1.109028    2285.8335    309.84386 
    2700    1.1095406    1379.4858    312.13848 
    2710    1.1096257    955.31657    319.42999 
    2720    1.1094001    1426.3668    302.10169 
    2730    1.1087786    1212.6908    306.79718 
    2740    1.1077707    1360.8113    288.02713 
    2750    1.1063573         1261    289.20106 
    2760    1.1045557    839.55131    286.32893 
    2770    1.1024823    132.84468    287.00621 
    2780    1.1003466   -592.06507    291.81146 
    2790    1.0983407   -700.21877    281.89293 
    2800    1.0965279   -1067.2944    289.46059 
    2810    1.0949784   -862.53868    281.91936 
    2820    1.0936751   -959.86269    283.97569 
    2830    1.0926559     -1637.91    299.92972 
    2840    1.0920919    -1772.753    304.67912 
    2850    1.0920113   -926.46405    307.15235 
    2860    1.0921983    118.30778     320.9862 
    2870    1.0923445    917.43256    319.06108 
    2880    1.0922379    1001.7279    320.57417 
    2890    1.0918588    217.23863    329.95384 
    2900    1.0913845   -2.8983617    340.61125 
    2910    1.0908669    616.12378    323.22202 
    2920    1.0901786    500.62466    326.54359 
    2930    1.0893056    527.07656     311.1636 
    2940    1.0882823   -389.33636    333.77061 
    2950    1.0873006   -70.836577    300.58862 
    2960    1.0863359      40.3028    287.00494 
    2970    1.0853494   -438.12444    304.81679 
    2980    1.0844455    -560.0508     291.8937 
    2990    1.0837027   -976.26776    295.12489 
    3000    1.0832112   -1109.1715     288.7417 
    3010    1.0830268   -756.60905      285.996 
    3020     1.083066   -379.88022    293.34418 
    3030    1.0831914    670.99666    268.54595 
    3040    1.0831896   -451.60683    310.12272 
    3050    1.0832911   -1005.7443    321.77585 
    3060    1.0836617    4.7171059    304.26624 
    3070    1.0840502    836.92404     301.2444 
    3080    1.0842289    571.78775    310.06756 
    3090    1.0842254    289.57268    302.49584 
    3100    1.0841318    250.13826    301.39794 
    3110    1.0839464    417.18735    300.60096 
    3120    1.0836266    527.78983    291.20031 
    3130     1.083169   -183.49683    287.09129 
    3140    1.0827482   -961.53524    297.82492 
    3150    1.0825783   -1161.2059     281.4564 
    3160    1.0827399   -969.91405    267.45751 
    3170    1.0832013   -1017.7946      278.955 
    3180    1.0839773   -823.21081    289.29893 
    3190    1.0850239   -80.514493    283.74465 
    3200    1.0861314    651.77859    268.05098 
    3210    1.0871153    301.99205    291.08891 
    3220    1.0880333    158.02889    294.24193 
    3230     1.088931    549.65561     293.6788 
    3240    1.0897039    720.02638    313.01754 
    3250    1.0902846    1143.4693    314.70511 
    3260    1.0905396    1723.1185    306.80094 
    3270    1.0902706    2296.2719    309.09079 
    3280    1.0893163    2317.3311    322.51525 
    3290    1.0876267    2041.2727    312.76479 
    3300    1.0852842     1278.832    325.66816 
    3310     1.082461    908.43067    327.48082 
    3320    1.0792565    728.37131    293.35465 
    3330    1.0757741   -715.12767    306.16757 
    3340    1.0723292   -371.66818     272.6317 
    3350     1.068945   -1147.3502    295.42341 
    3360    1.0657882   -1629.7023    285.67667 
    3370    1.0630474   -2369.0357    281.17287 
    3380    1.0609359    -2809.996    279.72174 
    3390    1.0595898   -2694.1777    280.19466 
    3400    1.0590135   -2656.0415    285.25653 
    3410    1.0592158   -2622.4949    292.05666 
    3420    1.0601728   -1624.1722    290.05636 
    3430    1.0616197    134.71388    292.34142 
    3440    1.0630612    1794.1308    298.13241 
    3450    1.0640329     2129.398    293.63045 
    3460    1.0644163    1398.3703    320.62756 
    3470    1.0643557    1659.1539    319.51758 
    3480     1.063809    1841.5413    322.24067 
    3490    1.0626964    1841.9409    308.11223 
    3500    1.0610054    1788.1843    297.07993 
    3510    1.0587879    698.54976    305.44673 
    3520    1.0563057   -535.70343    318.53609 
    3530    1.0539186   -917.11826    301.25327 
    3540    1.0517485   -1122.6683    296.76743 
    3550     1.049893   -1909.9338    307.46637 
    3560    1.0485264   -1775.7204    286.34389 
    3570    1.0476589   -1079.9832    258.30196 
    3580    1.0471384   -1635.7236    280.29057 
    3590    1.0470638   -1774.9591    282.84696 
    3600    1.0475005   -1469.1811    284.39938 
    3610    1.0483741   -780.05381    282.76392 
    3620    1.0494893    121.91925    274.30432 
    3630    1.0506214    196.43883     282.2775 
    3640    1.0517342    -517.9496    289.47317 
    3650    1.0530122   -1005.3947    302.04388 
    3660    1.0546031   -992.00608     295.3889 
    3670    1.0565254    -826.3136    314.95138 
    3680    1.0587056    180.63113    306.51554 
    3690    1.0609019    393.42078    310.16438 
    3700    1.0630131    804.88185    308.65886 
    3710    1.0649325    980.01378    315.40546 
    3720    1.0666039    748.40943    329.67735 
    3730    1.0680457    1385.7629     319.7855 
    3740    1.0691166    1697.6628     309.3392 
    3750    1.0697263    987.45246    308.01028 
    3760    1.0700391    435.07993    310.17772 
    3770    1.0702189     280.0375     314.9953 
    3780    1.0702908     984.6859    288.06952 
    3790    1.0701066    451.68353    304.37167 
    3800    1.0697789   -311.87126    301.49335 
    3810    1.0695446   -948.88149    296.62517 
    3820    1.0695808    -1183.236    292.03383 
    3830    1.0699523   -1119.2982    304.76958 
    3840    1.0706378   -99.918229     268.4517 
    3850    1.0714025   -62.509058    284.11459 
    3860    1.0721851   -131.40759    292.44736 
    3870    1.0730334    -197.8977    281.92316 
    3880     1.073965   -653.46984    295.67647 
    3890    1.0750874   -630.25847    316.40967 
    3900    1.0763925    477.25528    295.45857 
    3910     1.077607    805.03508     311.2714 
    3920    1.0785711    1783.7899     313.1827 
    3930    1.0790169    2817.9398    291.59359 
    3940    1.0787045    1639.0403    302.08476 
    3950     1.077904    -151.8325    314.70247 
    3960    1.0771006   -774.03865    337.52592 
    3970    1.0764354    1178.2517    291.94694 
    3980    1.0754711    1254.8783    294.02578 
    3990    1.0741199    779.16297    272.21059 
    4000    1.0725438   -651.68414    293.36669 
    4010    1.0711061   -1289.7771    300.02217 
    4020    1.0699849   -384.60292    269.40224 
    4030    1.0689872    -325.4028    275.04635 
    4040    1.0680851   -957.69665    289.53534 
    4050    1.0674212   -781.27772    288.88087 
    4060    1.0669511     406.1458    289.60662 
    4070    1.0663409    1625.5577    268.06987 
    4080    1.0653021    585.49014    304.16451 
    4090    1.0640273    544.93798    289.66514 
    4100    1.0625787    275.41785    295.38326 
    4110    1.0610505   -947.87011    324.95757 
    4120    1.0597553   -1397.1584    310.41697 
    4130    1.0588454   -1394.5884    304.07092 
    4140    1.0583285   -1121.4363    309.15775 
    4150    1.0581156   -270.78523    291.90535 
    4160    1.0579941  -0.13100871    292.81705 
    4170    1.0578925    -634.0731    307.08989 
    4180    1.0579582   -683.50774    310.79072 
    4190    1.0582242   -449.36586    312.69458 
    4200    1.0586259   -344.59152     322.1287 
    4210    1.0591311    175.21254    312.16642 
    4220    1.0595947    406.30526    290.21445 
    4230    1.0599929    -660.2414    312.07325 
    4240    1.0605536   -693.51068    306.62241 
    4250    1.0613295   -435.06952    281.03394 
    4260     1.062275   -1004.1083    309.64242 
    4270    1.0634881    13.396157    302.60376 
    4280    1.0647369    873.37739    277.99148 
    4290    1.0657904    30.179549    301.91428 
    4300    1.0668294   -92.349665    307.25058 
    4310    1.0679137    164.78951    298.06831 
    4320     1.068967    275.18027    297.04606 
    4330    1.0699687    237.45068    288.45968 
    4340    1.0709146    184.15521    285.33748 
    4350    1.0718489   -400.63367    279.61484 
    4360    1.0729309   -1358.9632    296.40994 
    4370    1.0744024   -838.00313    266.21018 
    4380    1.0761961   -1252.8662    287.37974 
    4390    1.0783666   -985.46151    283.31839 
    4400    1.0808834   -218.90004    299.85939 
    4410    1.0834784    1590.4382     285.1349 
    4420    1.0856754    2797.4577    265.57822 
    4430     1.087131    2144.9854    297.67499 
    4440    1.0879269    2274.0002    285.70669 
    4450    1.0881118    1459.7788    309.27425 
    4460    1.0878218    1793.3844    284.33599 
    4470    1.0870334    1014.6661    299.16003 
    4480    1.0859228    28.843444    315.81181 
    4490    1.0847531    26.101204    302.92366 
    4500     1.083558    -52.54402    310.70852 
    4510     1.082346    133.92995    307.37555 
    4520    1.0810663    393.05754    298.35076 
    4530    1.0796505    540.19834    297.17511 
    4540    1.0780775   -418.82133    306.75732 
    4550     1.076577   -1072.2045    307.12765 
    4560    1.0753625    -1280.429    301.84602 
    4570    1.0744991   -1393.0379     318.3235 
    4580     1.073991   -140.46463    286.68577 
    4590    1.0735742   -388.04282     284.8929 
    4600    1.0732379   -254.63773    284.57344 
    4610    1.0729701     164.7937    280.51734 
    4620     1.072643    377.53591    265.52381 
    4630    1.0722208   -130.33226    266.97316 
    4640    1.0718182    -555.7582     272.3604 
    4650    1.0715615   -580.51684    291.34736 
    4660    1.0714523   -92.485623    289.38098 
    4670    1.0713743     335.0419    279.65231 
    4680     1.071211    278.41462    302.28483 
    4690    1.0709209     712.3145    297.84036 
    4700    1.0704331    720.47661    289.11635 
    4710    1.0697344    179.87111    324.87482 
    4720    1.0689185     1148.771    312.86813 
    4730    1.0677909     1008.561    316.55278 
    4740    1.0663364    533.89122    309.57277 
    4750    1.0647106   -373.71437    313.61128 
    4760    1.0631331   -528.21315     303.1613 
    4770     1.061705   -892.24964    303.24567 
    4780    1.0605153   -1321.7288    292.33342 
    4790    1.0596975   -1690.5465    287.65564 
    4800    1.0593572   -1759.8264     279.1365 
    4810    1.0595412   -2073.7088    281.34212 
    4820    1.0603467   -2305.6229    288.36566 
    4830     1.061852   -2209.0514    306.91694 
    4840    1.0640074   -991.13686    289.80924 
    4850    1.0665138    255.65905    283.10697 
    4860    1.0690053    726.04649    283.81499 
    4870    1.0713495    430.11011    307.57751 
    4880     1.073591    540.30091    311.30173 
    4890    1.0757166    751.60204    321.57411 
    4900    1.0776359    1422.1143    320.66282 
    4910    1.0791722    1833.7346    329.32736 
    4920    1.0802016    1848.6901    325.19885 
    4930    1.0806783    1849.5165    319.26878 
    4940    1.0806423    1419.9299    343.71111 
    4950    1.0801284    2089.2195    314.86031 
    4960    1.0790368    1329.2697    333.28492 
    4970    1.0775094    953.81613     325.8371 
    4980    1.0756788    626.67803    318.03207 
    4990    1.0736407    42.919292    308.97883 
    5000    1.0715604   -352.91318    307.24209 
Loop time of 46.3423 on 2 procs for 5000 steps with 375 atoms

Performance: 9.322 ns/day, 2.575 hours/ns, 107.893 timesteps/s
99.9% CPU use with 2 MPI tasks x 1 OpenMP threads

MPI task timing breakdown:
Section |  min time  |  avg time  |  max time  |%varavg| %total
---------------------------------------------------------------
Pair    | 38.198     | 38.328     | 38.458     |   2.1 | 82.71
Bond    | 0.006495   | 0.0065581  | 0.0066211  |   0.1 |  0.01
Kspace  | 3.2298     | 3.3606     | 3.4914     |   7.1 |  7.25
Neigh   | 0.97321    | 0.9733     | 0.97339    |   0.0 |  2.10
Comm    | 0.80466    | 0.81011    | 0.81557    |   0.6 |  1.75
Output  | 0.012847   | 0.021034   | 0.02922    |   5.6 |  0.05
Modify  | 2.7467     | 2.7624     | 2.7781     |   0.9 |  5.96
Other   |            | 0.08028    |            |       |  0.17

Nlocal:    187.5 ave 191 max 184 min
Histogram: 1 0 0 0 0 0 0 0 0 1
Nghost:    7363.5 ave 7412 max 7315 min
Histogram: 1 0 0 0 0 0 0 0 0 1
Neighs:    123728 ave 125830 max 121625 min
Histogram: 1 0 0 0 0 0 0 0 0 1

Total # of neighbors = 247455
Ave neighs/atom = 659.88
Ave special neighs/atom = 2
Neighbor list builds = 167
Dangerous builds = 1
unfix stab_iso
unfix stab_constrain

reset_timestep 0
fix iso all npt temp ${Text} ${Text} $(100.0*dt) iso ${Pext} ${Pext} $(1000.0*dt)
fix iso all npt temp 298 ${Text} $(100.0*dt) iso ${Pext} ${Pext} $(1000.0*dt)
fix iso all npt temp 298 298 $(100.0*dt) iso ${Pext} ${Pext} $(1000.0*dt)
fix iso all npt temp 298 298 100 iso ${Pext} ${Pext} $(1000.0*dt)
fix iso all npt temp 298 298 100 iso 1 ${Pext} $(1000.0*dt)
fix iso all npt temp 298 298 100 iso 1 1 $(1000.0*dt)
fix iso all npt temp 298 298 100 iso 1 1 1000
#fix iso all nvt temp ${Text} ${Text} $(100.0*dt)
fix constrain all rattle 1.0e-5 100 0 b 1 a 1
  0 = # of size 2 clusters
  0 = # of size 3 clusters
  0 = # of size 4 clusters
  125 = # of frozen angles
  find clusters CPU = 0.000230074 secs

thermo_style custom step density etotal press temp
thermo_modify flush yes
    # insures the output is dumped in the file and not buffered or something
thermo ${NdumpStats}
thermo 10
dump trj all atom ${NdumpFrames} wat.lammpstrj
dump trj all atom 10000 wat.lammpstrj

run ${Nrun}
run 500000
PPPM initialization ...
  extracting TIP4P info from pair style
  using 12-bit tables for long-range coulomb (src/kspace.cpp:332)
  G vector (1/distance) = 0.259481
  grid = 12 12 12
  stencil order = 5
  estimated absolute RMS force accuracy = 0.00295581
  estimated relative force accuracy = 8.90132e-06
  using double precision FFTW3
  3d grid and FFT values/proc = 4693 864
Per MPI rank memory allocation (min/avg/max) = 10.51 | 10.51 | 10.51 Mbytes
Step Density TotEng Press Temp 
       0    1.0715604   -1372.9046    132.26672    307.24209 
      10    1.0715507   -1372.6099    385.48725    313.07998 
      20    1.0715076   -1372.8958     1199.347     301.3988 
      30    1.0713801   -1373.3089    1581.7003    304.09492 
      40    1.0711333   -1373.8487    1862.8581    313.83219 
      50    1.0707465   -1374.6187     2644.473    295.43435 
      60    1.0701701   -1375.4749     2612.759    298.91171 
      70    1.0694089   -1376.5255    1201.0214    336.00317 
      80    1.0685502   -1378.1395    839.94564    321.02465 
      90    1.0676303   -1379.9349     957.3417    284.15229 
     100    1.0666505   -1382.0442    -398.0387    328.90757 
     110    1.0656846   -1384.5372   -229.77715    307.61835 
     120    1.0647436   -1387.4059   -451.30676    301.70022 
     130     1.063836    -1390.519   -947.54014    311.81709 
     140    1.0629914   -1394.0372   -768.21399    308.31639 
     150    1.0621989   -1397.4689    12.711783    285.68403 
     160    1.0614136   -1400.7543   -435.63124    301.78185 
     170    1.0606544   -1403.8304   -649.04148    292.87552 
     180    1.0599422   -1406.5153   -589.94941    292.77851 
     190    1.0592666   -1408.8264    239.17062    289.07031 
     200    1.0585736   -1410.6166    1033.8198    278.43567 
     210    1.0578117   -1412.0272    572.71618    303.74649 
     220    1.0569997   -1413.2757      762.572    297.16269 
     230    1.0561305    -1414.116    1211.2204    276.02894 
     240    1.0551815   -1414.8878    401.05843    314.64747 
     250    1.0541916   -1415.4294    636.37772    281.32601 
     260     1.053166   -1415.7883   -530.77263    290.87928 
     270     1.052179   -1415.9693   -1596.2478    306.44271 
     280    1.0513007   -1416.0945    -1302.898    288.49809 
     290    1.0505197   -1416.1975    -1123.862    294.02479 
     300    1.0498253   -1416.1793   -1607.5695     292.3662 
     310    1.0492469    -1416.079   -1862.0227    289.96424 
     320    1.0488024   -1415.8355   -1753.3398    285.68526 
     330    1.0484901   -1415.5365   -2065.0937    296.41613 
     340    1.0483189   -1415.0896   -1176.7846    275.00811 
     350     1.048238   -1414.5294   -668.53583    274.19368 
     360    1.0482054   -1413.5231   -293.28944    255.32368 
     370    1.0482087   -1412.1723   -1514.5259    276.00658 
     380     1.048317   -1410.3398   -2200.8365    286.73316 
     390    1.0485798   -1408.3819   -1826.4796    292.97932 
     400    1.0489765   -1406.3566   -1259.8921    278.90082 
     410    1.0494723   -1404.1992   -1392.0841    290.43574 
     420    1.0500682   -1401.9636   -1178.6499    303.06064 
     430    1.0507463   -1399.7898   -477.71798    296.42424 
     440    1.0514713   -1397.8551   -997.93831    318.94687 
     450    1.0522634   -1396.1262   -768.16497    300.70696 
     460    1.0531201   -1394.7841   -1031.9521    308.19194 
     470    1.0540508   -1393.6261   -995.93994    315.27475 
     480    1.0550509   -1392.7455    77.787602    300.40576 
     490    1.0560531   -1392.0364    575.13093     304.0917 
     500    1.0570132   -1391.3457    989.38326    298.30348 
     510    1.0579076   -1390.8065    1019.2453    303.42148 
     520      1.05873   -1390.3822     726.7718    317.54374 
     530    1.0595003   -1390.1667    512.89881    298.23355 
     540    1.0602394   -1390.0896   -369.37707    308.63832 
     550    1.0609947    -1390.083    275.66634    302.54494 
     560    1.0617384   -1390.1162    711.45053    276.73558 
     570     1.062442    -1389.979    -139.7912    288.05988 
     580    1.0631481   -1389.6605   -110.14689    294.51336 
     590    1.0638628   -1389.2549     308.2162    289.50591 
     600     1.064562   -1388.8306    249.24392    303.59928 
     610      1.06524   -1388.3159    773.41853    290.84622 
     620    1.0658702   -1388.0029    429.48693    326.72887 
     630    1.0664547   -1387.7236    1547.6382     294.8343 
     640    1.0669333   -1387.6861    2265.7394    301.96781 
     650    1.0672498   -1387.6493    2162.3146    309.50815 
     660    1.0674044    -1387.699    1784.2576    306.34396 
     670    1.0674305   -1388.0594    1396.5251    320.01088 
     680    1.0673476   -1388.6438     1850.342    305.19731 
     690    1.0671292   -1389.4249    2203.1866    297.46343 
     700    1.0667503   -1390.4289    2083.7174    304.75981 
     710     1.066215   -1391.5954    1990.7534    295.74266 
     720     1.065532   -1393.0109     1829.617     299.8155 
     730    1.0647177   -1394.8831    913.84011    308.63098 
     740    1.0638357   -1397.4856   -452.15805    315.11098 
     750    1.0629704   -1400.9689   -173.96031    287.73663 
     760    1.0621199   -1404.7693    -196.5927    268.14305 
     770    1.0612992   -1409.3536   -2582.0676    312.69177 
     780    1.0606473    -1414.255   -2968.9849    278.44712 
     790    1.0602186   -1418.8069   -3596.7408    288.99924 
     800    1.0600436   -1423.0406   -3346.2814    291.36601 
     810    1.0601079    -1426.469   -2035.6314    263.14693 
     820    1.0603267   -1428.7159   -1424.7624    258.17267 
     830    1.0606559   -1430.3186   -1703.4864    270.71384 
     840    1.0611104   -1431.3412   -1535.5324    267.54006 
     850     1.061679   -1431.7633   -1369.4968    263.49432 
     860     1.062358   -1431.9328   -1867.6648    291.88399 
     870    1.0631701    -1431.782   -1259.8561    270.39108 
     880    1.0640872     -1431.38   -1428.3665    276.03337 
     890    1.0651198   -1430.8528   -2358.2277    310.88834 
     900    1.0663103   -1430.2424   -662.23023    274.20246 
     910    1.0675563   -1429.4277    1499.2686    254.55717 
     920    1.0687088   -1428.1141    1998.2213    276.56345 
     930    1.0697207   -1426.2732    2106.5584    269.84014 
     940    1.0705966   -1424.2879    1050.4273    295.15489 
     950    1.0713871   -1422.0431    1387.9797    285.67336 
     960    1.0720838   -1419.8678    1501.6438    294.32409 
     970    1.0726706   -1417.5268    1690.0634    283.80385 
     980    1.0731424   -1415.3162    1519.1349    288.43956 
     990    1.0735047   -1413.0267    1101.3921    287.69123 
    1000    1.0737954   -1410.6655   -236.07643    313.58049 
    1010     1.074094   -1408.5896    104.10192    302.97759 
    1020    1.0743837   -1406.8042      857.729    292.98137 
    1030    1.0746196   -1405.1884    591.09451     298.4657 
    1040    1.0748127   -1403.5903   -2.9123988    298.90598 
    1050    1.0750042   -1402.1427   -234.48525    299.66683 
    1060    1.0752136   -1400.8766   -19.372499    303.44945 
    1070    1.0754192   -1399.6453    914.36671    283.89735 
    1080    1.0755635   -1398.5455    1410.4124    291.00285 
    1090     1.075601   -1397.2782     2005.646    275.70412 
    1100    1.0755014   -1395.9822    1426.5298     287.9577 
    1110    1.0752895   -1394.4622    1164.0348    290.53908 
    1120    1.0749918    -1392.926    681.99924    287.94743 
    1130    1.0746397   -1391.4148    383.35051    307.59755 
    1140    1.0742439   -1389.9743    1542.6092    273.73553 
    1150     1.073743   -1388.6052    1092.5806    296.07182 
    1160    1.0731507   -1387.0459    963.92516    294.50081 
    1170    1.0724869   -1385.6498     329.1385    308.64136 
    1180    1.0717868   -1384.4008    92.843894    322.33559 
    1190    1.0710611   -1383.5535    1393.6374    303.10644 
    1200    1.0702344   -1382.9759    1620.8698    293.59062 
    1210    1.0692914   -1382.4428    4.7505885    318.35522 
    1220     1.068334   -1382.1389   -780.47022    315.98543 
    1230    1.0674141   -1381.9026     -286.267    286.81061 
    1240     1.066517   -1381.8303   -572.09693    309.48599 
    1250     1.065646   -1381.7661   -316.53902    309.82973 
    1260    1.0647859   -1381.8205    157.35657    294.85377 
    1270    1.0639094   -1382.0552     240.2271    312.89069 
    1280    1.0629964   -1382.3756    1160.8321    304.38336 
    1290    1.0619911    -1382.854    1192.1167    310.60924 
    1300    1.0608928   -1383.5419       334.75     321.9503 
    1310    1.0597504   -1384.6254    313.34994    334.92444 
    1320    1.0585599   -1386.0994    1641.9062    304.59169 
    1330    1.0572486   -1387.6566    1454.2082    287.54229 
    1340    1.0558231    -1389.027     24.67146     302.5549 
    1350    1.0543742   -1390.3671   -492.03651    305.31697 
    1360    1.0529445   -1391.6397    -801.1311     285.6864 
    1370    1.0515585   -1392.4354   -1071.5384    250.29048 
    1380    1.0502486    -1392.835   -2686.8251    295.00109 
    1390    1.0491038   -1392.7583   -2317.5322    267.29298 
    1400    1.0481258   -1392.6108   -2270.7205    279.08571 
    1410    1.0472958   -1392.0354   -1831.3722    280.82679 
    1420    1.0465911   -1391.3485    -1402.315     285.4577 
    1430    1.0459793   -1390.4892   -778.75866    271.77749 
    1440    1.0454202    -1389.437   -713.99291    284.56574 
    1450     1.044904   -1388.2616     -599.872    302.56644 
    1460    1.0444214   -1387.1048   -246.49872    292.20359 
    1470    1.0439547   -1386.0899   -269.30623    288.70644 
    1480    1.0435054   -1385.1378   -887.50324    310.83511 
    1490    1.0431107   -1384.3427   -1317.9739     317.6503 
    1500    1.0428043   -1383.9378   -1156.5707    310.95563 
    1510    1.0425796    -1383.918   -825.32071    316.13892 
    1520    1.0424064   -1383.9977   -110.25698    296.39441 
    1530     1.042249   -1384.1849   -686.63378    309.64045 
    1540    1.0421368    -1384.423   -1436.6671    323.58665 
    1550    1.0421248   -1384.9626   -1620.1341     320.4714 
    1560    1.0422308   -1385.6063   -1135.5498    298.19044 
    1570     1.042426   -1386.3055   -995.63366    307.89701 
    1580    1.0426966   -1386.9285   -892.72047    292.91205 
    1590    1.0430414   -1387.4224   -1308.1764    293.54421 
    1600    1.0434877   -1387.8838   -1596.1943    310.95102 
    1610    1.0440554   -1388.4644   -1121.8851    305.45435 
    1620     1.044718   -1389.0524   -455.12842    288.33483 
    1630    1.0454327   -1389.6454   -524.63141    307.56337 
    1640    1.0461869    -1390.262    659.17765    299.80278 
    1650    1.0469095   -1390.7687    1599.2333    285.03814 
    1660    1.0475456   -1391.3341    296.49091    310.31765 
    1670    1.0481619   -1391.8182   -99.582375    294.10847 
    1680    1.0488007   -1392.5884   -461.90384     317.9751 
    1690     1.049476   -1393.2778    488.96774    275.48384 
    1700    1.0501413   -1393.8904    329.46261    287.57956 
    1710    1.0507894    -1394.337    692.48904    287.44877 
    1720     1.051399   -1394.5051    1082.4275    278.22241 
    1730    1.0519452   -1394.6368    814.94137    307.70327 
    1740    1.0524349    -1394.681    1523.8693    288.37117 
    1750    1.0528278   -1394.7903    1577.1576    305.33671 
    1760    1.0531026   -1394.8325    2454.6997    291.69315 
    1770    1.0532085   -1394.9502    2536.1424    299.18692 
    1780    1.0531264   -1395.0746    2379.2545    309.94161 
    1790    1.0528625   -1395.3475    2468.0809    300.55484 
    1800    1.0524142   -1395.7379    1837.3976    300.16387 
    1810    1.0518245   -1396.2378    554.35506    312.14478 
    1820    1.0511734   -1396.8649    181.59434    305.64757 
    1830    1.0504946   -1397.8077   -183.64424    317.53658 
    1840    1.0498109   -1399.1169   -61.099889    304.11456 
    1850     1.049114   -1400.5387    83.673905    293.45361 
    1860    1.0483975   -1402.3638   -186.63406    316.76541 
    1870    1.0476683   -1404.3232    638.08769    280.62863 
    1880    1.0468868   -1406.3987      37.0286    295.56286 
    1890    1.0460766   -1408.5665   -32.053734    293.16122 
    1900    1.0452502   -1410.8492    38.973122     289.8521 
    1910    1.0443973   -1413.0407    334.49705    282.81994 
    1920    1.0435023   -1415.2517    241.09618    290.67519 
    1930    1.0425616   -1417.2786    860.70796    266.03521 
    1940     1.041544   -1419.0215    461.05763    283.75215 
    1950    1.0404611   -1420.6273    297.61935    290.47709 
    1960    1.0393391   -1422.1589   -519.98185    290.47193 
    1970    1.0382232   -1423.4792   -795.08234    277.64137 
    1980    1.0371441   -1424.6873   -1237.9134    293.95413 
    1990    1.0361255    -1425.763   -970.97649    280.25166 
    2000    1.0351584   -1426.6211   -887.58704    275.22859 
    2010    1.0342399    -1427.384   -1287.6339    292.47433 
    2020    1.0333924   -1427.8849   -1250.4222    278.14736 
    2030     1.032622   -1428.3607   -1723.5039    301.29681 
    2040    1.0319511   -1428.6898   -968.65029    271.29094 
    2050    1.0313462   -1428.8458   -1310.4681    277.12781 
    2060     1.030824   -1428.6627   -1853.2777    284.07682 
    2070    1.0304258   -1428.1822   -2165.8202    280.16799 
    2080    1.0301802   -1427.4595   -2328.7031    284.42593 
    2090    1.0300972   -1426.3694   -1806.5948    281.97224 
    2100    1.0301478   -1424.8472   -1653.6802    285.14031 
    2110    1.0303225   -1422.8354   -1634.4687    282.21666 
    2120      1.03062   -1420.3209   -999.58139    277.89101 
    2130    1.0310003   -1417.0279   -724.31556    305.22186 
    2140    1.0314407   -1413.2693   -282.16261    299.46529 
    2150    1.0319096   -1409.4894     214.2209    287.65927 
    2160    1.0323744   -1405.4906      579.269    306.06846 
    2170    1.0328035    -1401.724    1362.7661    290.69967 
    2180    1.0331473   -1398.2273    993.19831    296.11026 
    2190    1.0334279   -1395.0904   -51.012623    304.38838 
    2200    1.0337164    -1392.321   -783.21957    314.96328 
    2210    1.0340671   -1390.2582   -849.86198    317.48313 
    2220    1.0344773   -1388.5912    149.59253    302.75052 
    2230    1.0348917   -1387.4606    629.41043    312.15492 
    2240    1.0352635   -1386.4512    1211.3676    289.24733 
    2250    1.0355637   -1385.6229    428.99681    305.20022 
    2260    1.0358348   -1384.8653   -301.16009    311.13047 
    2270    1.0361271   -1384.2724    20.436049    285.32298 
    2280    1.0364363   -1383.8034    -873.0923     311.5534 
    2290    1.0368075   -1383.2466   -1351.4403    295.58204 
    2300    1.0372886   -1382.9346   -1424.9858    302.71359 
    2310    1.0378714   -1382.5089    137.10588    272.09557 
    2320    1.0384695   -1381.9059   -197.27994    288.24785 
    2330    1.0390923   -1381.0808   -1081.5215    298.95696 
    2340    1.0398046   -1380.2849   -1302.1747    298.31868 
    2350    1.0406212   -1379.4634   -987.11479     313.2092 
    2360    1.0415254    -1378.833   -380.56709    310.71727 
    2370    1.0424726   -1378.3152    300.11644    290.96778 
    2380     1.043418   -1377.7828    465.93328    299.39828 
    2390    1.0443398   -1377.1682    984.46721    303.20806 
    2400    1.0452027   -1376.5442    1723.4441    298.81128 
    2410    1.0459611   -1376.0116    1079.6726    316.83713 
    2420    1.0466503     -1375.59    400.54154    307.90692 
    2430    1.0473205   -1375.4135    201.50134    301.47215 
    2440    1.0479864   -1375.2815    99.079096    313.48304 
    2450    1.0486519   -1375.3366    357.11488    312.50279 
    2460    1.0492998   -1375.7145    995.05184    314.07533 
    2470    1.0498756   -1376.2768    2029.4761     303.7388 
    2480    1.0503176   -1377.1009     2058.447    306.66112 
    2490    1.0506135   -1378.3563    1930.3494    324.47042 
    2500     1.050762   -1380.1314    2714.3697    309.76338 
    2510    1.0507181   -1382.6718    2676.3537    321.01693 
    2520    1.0504706   -1385.8077      2633.04    316.49122 
    2530    1.0500201   -1389.7576    3078.2656    304.05361 
    2540    1.0493408   -1393.6611    3329.5713    274.06252 
    2550    1.0484172   -1397.3139    1961.0948    286.07764 
    2560    1.0473386   -1400.7945    192.49758    297.17457 
    2570    1.0462269   -1404.0319    -499.2577    291.97974 
    2580    1.0451339   -1406.6713    -281.1473     268.2598 
    2590    1.0440589   -1408.7838   -1013.5131    278.78018 
    2600    1.0430436   -1410.2372   -1651.2214    274.02724 
    2610    1.0421393   -1411.3158   -2012.0252    276.10426 
    2620     1.041374   -1411.8841   -2091.7164    267.43345 
    2630    1.0407592   -1412.1281   -2690.6858    291.27555 
    2640    1.0403299   -1412.2031   -2396.5816    277.30971 
    2650    1.0400739   -1411.9819   -2164.7781    264.49132 
    2660     1.039976   -1411.4995    -2112.295    291.59051 
    2670    1.0400186    -1410.741   -315.94545    275.15634 
    2680    1.0400933   -1409.8781    320.74254    287.89566 
    2690    1.0401455   -1408.7955    387.11649    280.38073 
    2700    1.0401709   -1407.5704    143.50343    300.93383 
    2710    1.0401806   -1406.3046    589.94486    297.95901 
    2720    1.0401485   -1405.0608    627.69981    291.10556 
    2730    1.0400759   -1403.7933   -147.14647    300.40712 
    2740    1.0400114   -1402.5334   -658.29496    307.71333 
    2750    1.0399936   -1401.3511   -978.33031    301.86083 
    2760    1.0400476   -1400.2808    -1168.921    299.04807 
    2770    1.0401873   -1399.2495   -1244.5471    294.76385 
    2780    1.0404215   -1398.2291   -1449.8389    300.50788 
    2790      1.04076   -1397.1434   -1083.8631    298.58596 
    2800    1.0411873   -1396.1495   -1092.7016    308.88261 
    2810    1.0416921   -1395.1391   -574.59483    298.03376 
    2820     1.042245   -1394.2509   -53.069664    301.15239 
    2830    1.0428064   -1393.2493     586.2991    284.20016 
    2840    1.0433377   -1392.1341    84.474867    312.16411 
    2850    1.0438599   -1390.8666    201.80326    304.38358 
    2860    1.0443756   -1389.7537    43.186948    316.28481 
    2870    1.0448886   -1388.7013    329.29015    312.44072 
    2880    1.0453771   -1387.6943    1175.9198     294.4484 
    2890    1.0457903   -1386.5682    1029.8095    300.87045 
    2900    1.0461313   -1385.1567    678.29904    301.35508 
    2910    1.0464249   -1383.4149    177.31371    308.75835 
    2920    1.0467053   -1381.3794    34.371616     306.9554 
    2930    1.0469817   -1378.9449    527.10038    296.33169 
    2940    1.0472261   -1376.1433    461.27063    319.52441 
    2950    1.0474311   -1372.7303    681.79643    295.76392 
    2960    1.0475951   -1369.2914    486.81796    301.27664 
    2970    1.0477213   -1365.3538    641.26147     319.8923 
    2980    1.0477961   -1361.4992    1384.4712    318.75939 
    2990    1.0477701   -1358.0661     1976.962    301.44835 
    3000    1.0476062   -1355.0131    1572.0195    314.60124 
    3010     1.047316   -1352.1797    1956.4825    301.01542 
    3020     1.046886   -1349.8651    1500.3099    318.44653 
    3030    1.0463381   -1347.7137    1088.9276    308.02233 
    3040     1.045711    -1346.113    245.32364    327.69255 
    3050    1.0450541   -1344.8172     -2.00205    324.68304 
    3060    1.0443897   -1344.0948      397.963    314.93934 
    3070    1.0436944   -1343.7833    137.96766    336.22766 
    3080     1.042981   -1343.9308    126.17611    321.54736 
    3090    1.0422538   -1344.5728    129.71786    321.26157 
    3100    1.0415088   -1345.4779    184.94807    312.58833 
    3110    1.0407493   -1346.5721   -267.79165    311.67157 
    3120    1.0400075   -1347.9657   -1008.3238    327.24187 
    3130     1.039325   -1349.6823    -641.9392     314.5769 
    3140    1.0386861   -1351.7209   -371.75239    311.23761 
    3150    1.0380699   -1353.6968    -548.5179    297.10259 
    3160    1.0374963   -1355.9882   -1421.7287     331.1622 
    3170    1.0370093   -1358.4584   -542.29133    303.28615 
    3180    1.0365655   -1361.0372   -206.47189    314.85645 
    3190     1.036124   -1363.6159    687.79798     298.5599 
    3200    1.0356402   -1366.0812    245.38415     303.1096 
    3210    1.0351329   -1368.3441    -202.1914    300.38012 
    3220    1.0346324   -1370.4455    134.48575    306.77099 
    3230    1.0341188   -1372.5334    363.93365    313.85522 
    3240    1.0335734   -1374.4223    614.82862    295.46276 
    3250    1.0329832   -1376.1558    242.52132     307.6478 
    3260    1.0323665   -1377.6874    68.637255    305.74738 
    3270    1.0317409   -1379.1444   -114.08587    308.97714 
    3280    1.0311217   -1380.6544   -571.39736    320.44125 
    3290    1.0305318   -1381.9934   -285.50336    295.97009 
    3300    1.0299687   -1383.3998   -936.06501     321.3046 
    3310    1.0294599   -1384.6656   -559.60009    288.54833 
    3320    1.0290005   -1385.8029   -1273.3718    308.84577 
    3330    1.0286191   -1386.9081   -828.13386    305.07589 
    3340     1.028296   -1387.9386   -33.835931    285.88561 
    3350    1.0279784   -1388.6367   -273.24791    277.87658 
    3360    1.0276865   -1389.2968    -1442.155    317.69735 
    3370    1.0274778   -1389.7918   -641.30407    288.51705 
    3380    1.0273261     -1390.42   -632.53864    301.42121 
    3390    1.0272169    -1390.916   -539.15199    305.19181 
    3400    1.0271417     -1391.62    43.524976    309.97741 
    3410    1.0270582   -1392.3252    1164.2544    284.87803 
    3420     1.026894   -1392.9113    1223.6911    285.39285 
    3430    1.0266432    -1393.274     385.3072    296.59123 
    3440    1.0263629   -1393.7652   -446.87787    320.97319 
    3450    1.0261011   -1394.3797    127.73647    303.85782 
    3460    1.0258321   -1395.2227    93.526921    307.33137 
    3470    1.0255575   -1396.2641   -217.45568    306.83357 
    3480    1.0252898   -1397.2631    58.472309    291.65267 
    3490    1.0250234   -1398.5531   -472.49744    322.31398 
    3500    1.0247752   -1399.8047      454.966    279.92729 
    3510    1.0245059   -1401.1464    21.604642    290.44081 
    3520    1.0242254   -1402.2849    174.35728    280.57116 
    3530    1.0239284    -1403.243      559.383    269.96592 
    3540    1.0235916    -1403.865    343.62808    264.65339 
    3550    1.0232312   -1404.0546   -747.85503    276.01335 
    3560    1.0229234   -1404.0189   -1719.7564    295.96927 
    3570    1.0227314   -1403.7347   -1475.7257    276.66775 
    3580    1.0226527   -1403.3282   -1674.0576    287.86229 
    3590    1.0226951   -1402.5548   -1922.0337    287.52057 
    3600    1.0228739   -1401.4691   -1731.6434    298.51148 
    3610    1.0231795   -1400.1254   -968.69764    288.11695 
    3620    1.0235643   -1398.4057   -847.68402    299.31302 
    3630    1.0240138   -1396.2855   -731.95917    294.84593 
    3640    1.0245193   -1393.7011   -473.66243    291.93306 
    3650    1.0250668   -1390.7072   -350.05874    306.92506 
    3660    1.0256373   -1387.2728    627.57109    291.81245 
    3670    1.0261744   -1383.7965     843.2644    292.55633 
    3680    1.0266596    -1380.002      18.2969    310.18388 
    3690    1.0271437   -1376.3594   -381.74498    296.09194 
    3700    1.0276643   -1373.0052   -849.29835    331.08412 
    3710    1.0282392   -1370.0527     197.0131    300.54869 
    3720    1.0288188   -1367.7667   -297.02865    324.35712 
    3730    1.0294129   -1365.7951     447.2701    314.80217 
    3740    1.0299844   -1364.3849    907.57017    315.13518 
    3750    1.0304924   -1363.3266    1221.1921    327.99967 
    3760    1.0309169   -1362.7993    1204.7796    330.32992 
    3770    1.0312554   -1362.7695    1101.0659    327.99706 
    3780    1.0315122   -1363.2364    1496.0788    322.21742 
    3790    1.0316667   -1364.1501    1118.7629    331.17944 
    3800    1.0317347   -1365.4002    1058.9652    305.47435 
    3810    1.0317362   -1366.8327    146.69873    309.33338 
    3820    1.0317187   -1368.2864   -188.50957    309.63561 
    3830    1.0317179   -1370.1007    -539.7106    321.89152 
    3840    1.0317505   -1371.9577   -290.58221     300.3821 
    3850    1.0318098   -1373.9872   -490.89672    308.79565 
    3860    1.0319011   -1376.0854    -268.5967    314.21488 
    3870    1.0320086    -1378.424    369.93399    306.47175 
    3880    1.0320885   -1380.4456    1246.6434    273.20773 
    3890    1.0320891   -1382.2279    493.80117    297.27357 
    3900    1.0320481   -1383.8208    -81.66164    298.81901 
    3910    1.0320101   -1385.3087    -123.9847    291.04836 
    3920    1.0319833   -1386.6774    -209.3561    296.41677 
    3930    1.0319681   -1387.8649   -130.37933    292.42648 
    3940    1.0319627   -1388.9291   -121.39445    291.78108 
    3950     1.031965   -1389.7595    17.036403    283.19612 
    3960    1.0319749   -1390.4425   -924.63236    298.11002 
    3970     1.032046   -1390.9275   -1216.3504    282.24181 
    3980    1.0322108   -1391.3291   -1527.1854    298.47149 
    3990    1.0324785   -1391.5686   -719.44714    292.50746 
    4000    1.0328099   -1391.8052   -555.58442    293.98098 
    4010     1.033188    -1391.985   -787.63682    297.92561 
    4020    1.0336231   -1392.1435    -563.6274    299.45046 
    4030    1.0341017   -1392.2284   -73.180831    288.77628 
    4040    1.0345969   -1392.2838   -180.78362    287.37869 
    4050    1.0351082   -1392.0739    -200.5206    275.97788 
    4060    1.0356461   -1391.7493   -745.65214    294.25289 
    4070    1.0362427   -1391.2328   -1017.1139    285.11276 
    4080    1.0369213   -1390.6298   -1213.1689    286.31337 
    4090    1.0376942   -1389.9276   -821.96406    288.68563 
    4100    1.0385339   -1389.0088   -194.65882    284.08625 
    4110    1.0394042   -1388.0444   -355.47504    309.68503 
    4120    1.0403056   -1387.1625    62.675366    311.08915 
    4130    1.0412081   -1386.4677    1142.5877    295.92288 
    4140    1.0420429   -1385.9135    1505.2657    306.42028 
    4150    1.0427699   -1385.3514    1925.8558    309.08362 
    4160    1.0433635   -1385.0128    2468.4206    295.19545 
    4170    1.0437889   -1384.6535    2048.9651    293.86055 
    4180    1.0440701   -1384.4292    1144.8829     326.4479 
    4190    1.0442573   -1384.4265    1778.9565    300.73609 
    4200    1.0443207   -1384.5682    1841.2913    296.42799 
    4210    1.0442517   -1384.7367    1452.9581    305.20379 
    4220    1.0440701   -1384.9336    1555.8885    291.37558 
    4230    1.0437752   -1384.9842    1194.3683    281.20716 
    4240     1.043394   -1384.9388     34.50426    307.56553 
    4250    1.0429979   -1384.9016   -257.43186     305.0941 
    4260    1.0426182   -1384.9972   -583.39633    306.23783 
    4270    1.0422737   -1385.1421   -505.75739    300.64279 
    4280    1.0419588    -1385.321    102.50568    294.43683 
    4290    1.0416323   -1385.3327    482.98107    275.50718 
    4300    1.0412748   -1385.2138   -208.13801    280.91396 
    4310    1.0409248    -1384.767   -648.21943    272.36009 
    4320    1.0406204    -1384.147   -1093.8099    283.83378 
    4330     1.040395   -1383.3605   -1633.1153    282.95743 
    4340    1.0402908    -1382.487   -2392.6642    290.46032 
    4350    1.0403597   -1381.6175   -2901.7021    308.36881 
    4360     1.040633   -1380.8333   -1992.8266     279.9072 
    4370    1.0410597   -1380.0713   -980.29281    274.19465 
    4380    1.0415611   -1378.8961   -196.27053      278.821 
    4390    1.0420925   -1377.5668   -495.49117    282.68153 
    4400    1.0426701   -1376.0216   -1443.2053    298.55884 
    4410     1.043357   -1374.4511   -1871.7078    312.06009 
    4420    1.0441847   -1373.1077    -1179.336    310.44445 
    4430    1.0451047   -1371.9129    257.95343    302.78398 
    4440    1.0460236   -1370.8852    1056.5694    307.21976 
    4450    1.0468717   -1369.8378    1722.5505    299.06976 
    4460    1.0476089   -1368.9114    1715.8093    304.94989 
    4470    1.0482273   -1368.0145     1748.025    301.67007 
    4480    1.0487306   -1367.2553    941.09862    320.79228 
    4490    1.0491656   -1366.7789    666.43684     325.0912 
    4500    1.0495513   -1366.6141    1313.3599    297.41252 
    4510    1.0498527    -1366.585    875.80387    300.89642 
    4520    1.0500925   -1366.4774    291.77309    287.83322 
    4530    1.0503228   -1366.4599   -1053.7139    312.46044 
    4540    1.0506183   -1366.3319   -750.76676    291.59663 
    4550    1.0509793    -1366.324   -565.50433    295.65979 
    4560    1.0513887   -1366.2595   -848.20718    303.35388 
    4570    1.0518656   -1366.2531   -1217.9775    308.03869 
    4580    1.0524308   -1366.3926   -954.86319     319.6216 
    4590    1.0530711   -1366.9388   -267.36308    324.14888 
    4600    1.0537403   -1367.8812    390.81949    304.67018 
    4610    1.0543858   -1368.8676    1179.6501    283.58624 
    4620    1.0549645   -1370.2283     472.6654    324.54812 
    4630     1.055505   -1371.7879    503.96954    301.75602 
    4640    1.0560239   -1373.8837   -295.88224    314.71281 
    4650    1.0565635   -1376.4287   -325.01604    312.87926 
    4660    1.0571306   -1379.5175    200.73466    308.96962 
    4670    1.0576919   -1382.9359    740.88834    307.20823 
    4680    1.0582042   -1386.5344    1256.4099    291.75955 
    4690    1.0586319   -1389.7841    1384.4619    282.63455 
    4700    1.0589643   -1392.9299    1094.1589    292.91198 
    4710    1.0592216   -1395.7536    488.17723     302.2195 
    4720    1.0594384    -1398.619    706.06475    304.05143 
    4730    1.0596033    -1400.964     1507.662    277.67355 
    4740    1.0596711   -1403.0536    531.42829    305.10859 
    4750    1.0596852   -1404.7239    1102.0223    276.90578 
    4760     1.059625    -1406.082    1236.4339    284.32821 
    4770    1.0594682   -1407.0055    1382.4984    285.27186 
    4780     1.059208   -1407.8258    1409.5267    291.74362 
    4790    1.0588391   -1408.2975     1533.274    273.69584 
    4800    1.0583611   -1408.6905    455.16383    307.67245 
    4810    1.0578298   -1408.7969     785.0584    269.24912 
    4820    1.0572484   -1408.8652   -230.38751    298.77981 
    4830    1.0566634   -1408.6086   -53.000545    281.05426 
    4840     1.056083   -1408.3282   -314.51726    281.05708 
    4850    1.0555185   -1407.7746   -826.59074    284.89748 
    4860    1.0550021   -1406.9283    -879.6043    269.60925 
    4870    1.0545532   -1405.8848    -1739.676    290.54262 
    4880    1.0542151   -1404.5958   -1178.3446    287.26186 
    4890    1.0539553   -1403.1941     52.74148    266.20081 
    4900    1.0536965   -1401.5913    76.758928    293.30964 
    4910    1.0534207    -1399.673    563.76577    291.59306 
    4920    1.0531038   -1397.8258     652.9138    300.44403 
    4930    1.0527323   -1395.9933    836.69629    292.44031 
    4940    1.0522944   -1394.1686    1022.4057    291.79034 
    4950    1.0517815   -1392.4263    544.03513    303.04374 
    4960    1.0512158   -1390.6038    328.17006    289.97715 
    4970    1.0506255   -1389.0067   -202.94231    311.60079 
    4980    1.0500342   -1387.4777    122.42127    302.81597 
    4990    1.0494301   -1386.2538    204.95378    310.76639 
    5000    1.0488019   -1385.2781    274.56222    321.81509 
    5010    1.0481375   -1384.6949    1192.1805    306.32245 
    5020    1.0473781   -1384.3202    1755.4053    296.15882 
    5030    1.0464908   -1384.1947     1190.195    316.60843 
    5040    1.0454954   -1384.0567     1435.767    298.05782 
    5050    1.0443933   -1384.2065    530.02561    322.19146 
    5060    1.0432333   -1384.4855    25.107523    314.67581 
    5070    1.0420595   -1385.0573   -533.52085     318.4635 
    5080    1.0409014   -1385.6647    442.19689    281.87222 
    5090    1.0397072   -1386.1931    357.04661    293.70601 
    5100    1.0384718   -1386.4007   -6.1067562    281.12464 
    5110    1.0372294    -1386.483   -596.40305    281.21732 
    5120    1.0360128   -1386.2154   -772.49528    282.52105 
    5130    1.0348426   -1385.8993   -1101.1057    302.73893 
    5140    1.0337358   -1385.4655   -713.24706    273.74266 
    5150    1.0326751   -1384.9149   -818.54747    273.63837 
    5160    1.0316656   -1384.1845   -1291.2619    301.27853 
    5170    1.0307329   -1383.3552   -796.80005     279.7265 
    5180    1.0298583   -1382.6042   -1111.5747    292.70116 
    5190    1.0290532   -1381.8091   -1509.7659    319.01663 
    5200    1.0283419   -1381.2837   -450.77832    292.25424 
    5210     1.027662   -1380.9391    10.395514    304.41356 
    5220    1.0269704   -1380.6889    804.79991    301.42488 
    5230    1.0262147   -1380.4938    1002.5286    295.93383 
    5240    1.0253869   -1380.4723    -166.1981    326.46843 
    5250    1.0245533   -1380.5796   -319.22856    316.02577 
    5260    1.0237342   -1381.1128   -14.112208    314.88012 
    5270    1.0229079   -1381.8006    594.53592    301.40963 
    5280    1.0220301   -1382.6422    796.33853    311.06451 
    5290    1.0210871   -1383.5275    659.80875    297.42489 
    5300    1.0200874   -1384.3831    267.30405    297.84182 
    5310     1.019062   -1385.2318    -380.4547    308.20728 
    5320    1.0180529   -1386.1749   -836.41285    308.64348 
    5330    1.0170919   -1387.1019   -592.86714    291.30563 
    5340    1.0161703   -1388.1255   -957.34134     310.9713 
    5350    1.0153003   -1389.0053   -166.40419    272.00772 
    5360    1.0144509   -1389.8128   -975.56823    301.34124 
    5370    1.0136606   -1390.5393   -1615.0818    307.82845 
    5380    1.0129779   -1391.2866   -1418.6486    283.42986 
    5390    1.0124007    -1392.064   -1941.8095    301.70218 
    5400    1.0119528   -1392.6881   -1571.6602    281.56431 
    5410    1.0116279   -1393.2813   -2156.7645    298.13461 
    5420    1.0114487   -1393.8303   -1864.3743    299.62016 
    5430    1.0113976   -1394.3849   -554.41655    269.83506 
    5440    1.0113987   -1394.7004   -828.26101    278.57299 
    5450    1.0114657   -1394.8356   -2094.3091    300.23777 
    5460    1.0116775   -1394.7714   -2048.5801    280.70775 
    5470    1.0120518   -1394.7804   -2646.6546    308.60481 
    5480    1.0126122   -1394.6149   -1904.4764    282.55164 
    5490    1.0133299   -1394.5197   -2239.9077    309.52477 
    5500    1.0142091   -1394.3218   -1497.2252    298.58693 
    5510     1.015207   -1394.1074   -321.19968    283.94162 
    5520     1.016246   -1393.6633   -218.31121    301.08895 
    5530    1.0173049   -1393.0534    337.24541    298.51341 
    5540     1.018347    -1392.274    1199.7764    287.00132 
    5550    1.0193169    -1391.263    1068.9792      304.927 
    5560    1.0202191   -1390.0752    516.79226    302.43781 
    5570     1.021087   -1388.8301    651.75841    294.19371 
    5580    1.0219176   -1387.5051    670.86605    312.97455 
    5590    1.0227014   -1386.0505    863.61012    301.72628 
    5600    1.0234395   -1384.7588    14.116785    305.69563 
    5610     1.024179    -1383.398   -556.27309    298.21287 
    5620    1.0249699    -1382.106   -1372.4203    298.77254 
    5630    1.0258671   -1380.7704   -1571.9725    292.18497 
    5640    1.0268872   -1379.3443   -1340.8415    307.16881 
    5650    1.0280108   -1377.8335     -758.127    303.30863 
    5660    1.0292082   -1376.4675    -815.0996    300.90826 
    5670    1.0304751   -1375.0713     -944.612    313.56071 
    5680    1.0318205    -1373.854   -783.34689    329.90556 
    5690     1.033232   -1372.9779   -45.044703    312.18689 
    5700    1.0346596   -1372.4339    275.47494     326.9659 
    5710    1.0360771   -1372.2043    797.57335    317.54319 
    5720    1.0374465   -1372.2306    1601.6943    306.52812 
    5730    1.0387148   -1372.4257    1585.9349    307.48155 
    5740    1.0398783   -1372.8145    975.25441    319.26798 
    5750    1.0409729    -1373.574    1197.5388    315.33888 
    5760    1.0419921   -1374.7628    884.95264    329.09573 
    5770    1.0429499   -1376.4747    634.10994    332.69816 
    5780    1.0438633   -1378.9454    1263.6378    331.38603 
    5790    1.0446895   -1381.9856    1757.5248     321.1503 
    5800    1.0453928   -1385.2044    1642.5643    297.84391 
    5810    1.0459815   -1388.4878    1460.3084    308.00461 
    5820    1.0464651   -1391.8539    1252.2779     317.8838 
    5830    1.0468579    -1395.349    1054.0779     313.6262 
    5840    1.0471759   -1398.7726    1060.7863    315.54004 
    5850    1.0474094   -1401.9537    1855.1077    302.39166 
    5860    1.0475131    -1404.822    1905.8175    304.20517 
    5870     1.047478   -1407.2846    1525.4361    294.85549 
    5880    1.0473311   -1409.3063    998.74861     293.4686 
    5890    1.0471077   -1411.0166    595.43863     296.2723 
    5900    1.0468419   -1412.3896  -0.28859299    282.95442 
    5910    1.0465791   -1413.4543   -1095.5335    296.57049 
    5920    1.0463841   -1414.3035   -893.67438    285.29682 
    5930    1.0462581   -1414.9017   -1048.2847    282.75403 
    5940    1.0462083   -1415.3191   -1559.1085     292.2824 
    5950    1.0462695   -1415.5134   -1378.9632    272.81585 
    5960    1.0464351   -1415.4762    -1276.711    274.83823 
    5970    1.0466938   -1415.0277   -1097.2537    270.35029 
    5980    1.0470417   -1414.3735   -1546.4328    291.87111 
    5990    1.0474967   -1413.3931   -946.88559    267.27655 
    6000    1.0480354   -1412.2774   -1682.3428    298.73886 
    6010    1.0486982   -1410.9788   -2123.2457     304.2062 
    6020    1.0495157   -1409.6714   -1595.8477    284.41795 
    6030    1.0504657   -1408.4156   -1782.5181    306.91181 
    6040    1.0515418   -1407.0689   -704.27069    294.80779 
    6050    1.0526783    -1405.671    515.82216     272.1457 
    6060    1.0537995   -1404.0796    39.854543    303.00489 
    6070    1.0549176   -1402.2585    153.55637     296.6199 
    6080    1.0560345    -1400.505    373.18311    283.39804 
    6090    1.0571389   -1398.6246   -19.444127    297.94269 
    6100    1.0582466   -1396.6025    195.58035     292.6219 
    6110    1.0593482   -1394.5842    398.00984    301.11503 
    6120    1.0604235   -1392.4981    1242.8244     278.6178 
    6130    1.0614243   -1390.4012    1076.5938    294.46137 
    6140    1.0623536   -1388.1539    646.22254    301.70357 
    6150    1.0632336   -1386.0262    1206.4312    293.61326 
    6160     1.064032   -1383.9833    1629.9373    305.46223 
    6170    1.0647083   -1382.0843    2718.8901    289.71363 
    6180    1.0651974   -1380.3378    2532.6354    295.86325 
    6190     1.065505   -1378.6683    1677.9814    313.11908 
    6200    1.0656841   -1377.2379    1696.0959    301.77614 
    6210     1.065746   -1376.1579    1097.6585     320.2027 
    6220    1.0657245   -1375.4811    581.44195    334.02684 
    6230     1.065646   -1375.2121    1747.3412      293.917 
    6240    1.0654502   -1375.2589    1463.2838    317.50682 
    6250    1.0651359   -1375.3453    1876.2617    304.03846 
    6260    1.0646875   -1375.7701    1955.9715    318.08474 
    6270     1.064085   -1376.2543    2496.1874    305.32563 
    6280    1.0633055    -1377.023    1806.4282    322.54909 
    6290    1.0623824   -1377.8501    1473.9122    311.08995 
    6300    1.0613516   -1379.0617     649.8669    341.15017 
    6310    1.0602511   -1380.5069    1425.5383    320.16234 
    6320    1.0590461   -1382.2724    1578.8796    316.34318 
    6330    1.0577164    -1383.925    1690.1305    305.14415 
    6340    1.0562603   -1385.6659    1317.2022    310.68371 
    6350    1.0546971   -1387.1735    1157.8936    303.78197 
    6360    1.0530432   -1388.7647     463.4628    319.01424 
    6370    1.0513437   -1390.1646    557.78198    286.48503 
    6380    1.0496016   -1391.3759    271.08353    299.48543 
    6390    1.0478257    -1392.396    557.62543    288.40208 
    6400    1.0460091   -1393.1704    302.03708    278.37927 
    6410    1.0441696   -1393.5749   -591.90268    286.80655 
    6420    1.0423726   -1393.7752   -1890.1459    310.25793 
    6430    1.0407006   -1393.9211   -2052.5343    304.09999 
    6440    1.0391745    -1394.157   -1653.0671    285.64686 
    6450    1.0377713   -1394.3326    -1764.348    294.36685 
    6460    1.0364917   -1394.2833   -1916.2782    282.37423 
    6470    1.0353562   -1394.1506   -2415.9482    287.57341 
    6480    1.0343896   -1393.7529   -2457.0039    296.64252 
    6490       1.0336   -1393.4433   -2235.5082    310.42275 
    6500    1.0329695   -1393.2935   -1515.1919    299.34541 
    6510    1.0324509   -1393.1802   -1240.8982    296.36354 
    6520    1.0320276   -1393.1711   -1581.8174    305.09545 
    6530    1.0317133   -1393.1117   -1411.8725    296.39075 
    6540    1.0314994   -1393.1322   -900.20294    298.28043 
    6550    1.0313569   -1393.1426    -980.1174     303.0474 
    6560    1.0312879   -1393.2387   -1673.8954    319.44325 
    6570    1.0313343   -1393.7588   -1222.3344    322.08512 
    6580     1.031461   -1394.6171    527.17071    293.40187 
    6590    1.0315546   -1395.5121    1452.2832    288.25545 
    6600    1.0315423   -1396.5031    1828.7827    301.43977 
    6610    1.0313932   -1397.6342    2103.2999    303.65588 
    6620    1.0310874   -1399.0355      2182.38    298.44549 
    6630    1.0306297   -1400.8641    1369.4454    310.46355 
    6640    1.0300572   -1403.1069    1715.3083    298.58265 
    6650    1.0293583   -1405.7048    2010.1686    283.48328 
    6660    1.0285168   -1408.3747    1141.7924    282.91988 
    6670    1.0275918   -1411.2503   -178.28209    291.81072 
    6680    1.0266712   -1414.1944   -534.69351    282.98115 
    6690     1.025785   -1417.0464    -427.5037    275.47298 
    6700    1.0249329   -1419.7237   -991.92131    275.95581 
    6710    1.0241477   -1421.9781   -1296.1495    256.56837 
    6720    1.0234567   -1423.7111    -1505.495    260.17236 
    6730    1.0228709   -1424.9112   -1464.9584    261.55047 
    6740    1.0223921    -1425.665   -1558.1697    261.26563 
    6750    1.0220255   -1425.9916   -1732.7632    272.53832 
    6760    1.0217804   -1425.8927   -1512.5462    267.02958 
    6770    1.0216517   -1425.5311   -1787.4895    276.59314 
    6780     1.021649   -1424.6796    -1898.179    271.54394 
    6790    1.0217898   -1423.5857   -2362.2794     285.5534 
    6800    1.0221018   -1422.1188   -2362.5527    284.39772 
    6810    1.0225844   -1420.4047   -1724.0746    286.43919 
    6820    1.0231914   -1418.3963   -660.79976    267.80243 
    6830    1.0238607   -1415.9894   -988.47797    281.11702 
    6840    1.0246061   -1413.0216   -1453.9116     311.0136 
    6850    1.0254552   -1409.9759   -961.41387    302.93436 
    6860    1.0263787    -1407.085   -319.38171    290.74372 
    6870    1.0273365   -1404.2648   -393.11057    309.00647 
    6880     1.028326   -1401.4929   -444.58044    304.02763 
    6890     1.029358   -1399.1816   -706.89286    313.53151 
    6900    1.0304371   -1397.1437    234.96511    295.23818 
    6910    1.0315121   -1395.4697    467.21969    301.97654 
    6920    1.0325564   -1393.8903    421.41068    297.10486 
    6930    1.0335792   -1392.6462    11.641524    315.85726 
    6940    1.0345991   -1391.6668    413.67009    300.55908 
    6950    1.0355976   -1391.0606    304.51318     315.6028 
    6960    1.0365739   -1390.6186    565.24209    308.87248 
    6970    1.0375155   -1390.4555    785.72709    299.06079 
    6980    1.0384032   -1390.3618    1087.9223    298.33001 
    6990     1.039209   -1390.1758    1689.0091    292.41136 
    7000    1.0399048   -1390.1879     1108.093    321.44847 
    7010    1.0405109   -1390.2017    1394.9116    298.63549 
    7020    1.0410288   -1390.5269    1003.5954    308.33048 
    7030    1.0414659   -1390.8048    1477.4705    300.55403 
    7040    1.0417963   -1391.1292    1819.5898    300.18178 
    7050    1.0419986   -1391.4395     1609.471     287.4982 
    7060    1.0420833   -1391.6681    1403.3835    291.41944 
    7070    1.0420609   -1391.6861     1469.267    289.40003 
    7080    1.0419319   -1391.6857    1359.8251    300.43291 
    7090    1.0417001   -1391.6323     1372.446    297.21237 
    7100      1.04137   -1391.6876    948.20719    308.05056 
    7110    1.0409665   -1391.7781    602.27115    307.71284 
    7120    1.0405169   -1392.1264    262.27249    319.03155 
    7130    1.0400366   -1392.6903    1088.2328    297.84816 
    7140    1.0394773   -1393.1825    1308.4176    279.87103 
    7150    1.0388282   -1393.6658    319.98068     307.9432 
    7160      1.03814   -1394.0201    691.47614    283.79483 
    7170    1.0374039   -1394.2761     503.6501    284.75792 
    7180    1.0366299   -1394.4259   -88.724861    305.21048 
    7190    1.0358539   -1394.5351   -90.426879    297.97684 
    7200    1.0350803   -1394.8361    207.67491    308.99804 
    7210    1.0342813   -1395.1953    1250.1188    290.54001 
    7220     1.033398   -1395.6626    618.48856    306.28802 
    7230    1.0324642   -1396.1495    86.084991    299.08595 
    7240    1.0315186   -1396.7386   -198.54626    295.33787 
    7250    1.0305821   -1397.4516   -467.11433     305.7767 
    7260    1.0296714   -1398.3252   -236.71593     291.4895 
    7270    1.0287814   -1399.2883   -690.21293    291.45444 
    7280    1.0279379   -1400.4638   -1402.9836     312.4045 
    7290    1.0271819   -1402.0351   -707.76943    298.28517 
    7300    1.0264776    -1403.893   -271.25342    285.84111 
    7310    1.0257976   -1405.9078    -904.8571     292.6145 
    7320    1.0251836   -1408.2702   -1903.1178    310.61913 
    7330    1.0246966   -1411.0481   -1759.2601    300.91597 
    7340    1.0243306   -1413.8481   -704.72785    266.34276 
    7350    1.0240241   -1416.2483   -732.49374    266.05089 
    7360    1.0237754   -1418.5315   -1753.2461    294.54239 
    7370    1.0236462   -1420.7045    -1854.535    289.33885 
    7380    1.0236534   -1422.7998   -1943.4737     289.1659 
    7390    1.0238028   -1424.8085   -1843.3799    283.84911 
    7400    1.0240845   -1426.4865   -1425.6119    282.01385 
    7410    1.0244747   -1427.9585   -1449.8182    283.65281 
    7420    1.0249782   -1429.3306   -1611.3577    288.84218 
    7430    1.0255986    -1430.376   -1378.5419    278.80492 
    7440    1.0263274   -1431.3318   -1586.1857    294.21242 
    7450     1.027177   -1432.1119   -1613.9051    275.21614 
    7460    1.0281596    -1432.686   -2604.1897    289.10481 
    7470    1.0293372   -1433.3917   -3313.9225    319.56627 
    7480    1.0307517   -1434.1036   -1904.8793    282.86126 
    7490     1.032321   -1434.7755   -500.76439     280.5903 
    7500    1.0339406   -1435.0245     306.4927    278.32487 
    7510    1.0355562    -1435.109      -324.09     292.8195 
    7520     1.037204   -1435.0897   -562.63411    287.78709 
[...]
  496990    1.0264786   -1437.5684    746.17011    304.25387 
  497000    1.0268945   -1439.4583    895.24769    296.05522 
  497010    1.0272404   -1441.2857    1079.4329    294.08541 
  497020    1.0275135   -1443.2495    17.636235    320.17972 
  497030    1.0277664   -1445.1833    460.25081    289.12983 
  497040    1.0279945   -1447.2737    291.44917    305.12989 
  497050    1.0281896   -1448.9476    718.65048    273.74865 
  497060    1.0283443   -1450.5247   -334.69255     294.8811 
  497070    1.0285138   -1451.8313   -600.32007    291.68977 
  497080    1.0287237   -1453.0157   -544.55633    286.20908 
  497090    1.0289754   -1453.9897   -728.50369    288.67086 
  497100    1.0292714   -1454.7517    -281.7368    277.56866 
  497110    1.0295877   -1455.1995   -58.232857    277.05735 
  497120    1.0299072   -1455.3785   -347.52798    290.56323 
  497130    1.0302509   -1455.3667   -729.73663    286.82072 
  497140    1.0306469   -1455.2921   -1161.5015    297.56382 
  497150     1.031121   -1455.2364    -1095.308    306.71042 
  497160    1.0316624   -1455.1459   -8.2448455    283.74925 
  497170    1.0322094   -1455.0894    395.11566    285.88602 
  497180    1.0327185   -1454.6165    864.37861    261.82442 
  497190    1.0331702   -1453.9079    34.777334    284.10236 
  497200    1.0336129   -1452.8785   -593.83581    297.08319 
  497210    1.0340888    -1451.796   -243.11011    286.69015 
  497220    1.0345783   -1450.7262    484.64604    280.13567 
  497230    1.0350323   -1449.3619    385.50558    285.51427 
  497240    1.0354609   -1447.8823   -454.87509    303.85524 
  497250    1.0359123   -1446.4578   -431.92233    312.18575 
  497260    1.0363824   -1445.2609    893.77037    298.09985 
  497270    1.0367867   -1444.3044    2065.4912    291.72509 
  497280     1.037028    -1443.231    3694.7946    267.15854 
  497290    1.0370123   -1442.1849    3316.3771    306.10756 
  497300    1.0367436   -1441.1178    3680.8311    299.27089 
  497310    1.0362136   -1440.4786    3666.5525    294.89037 
  497320    1.0354194   -1439.9489    3171.2757    293.01418 
  497330    1.0343962   -1439.5021    2958.8601    278.87607 
  497340    1.0331718   -1439.1492    2162.9961    294.69088 
  497350    1.0317953   -1438.8034    1848.4072    285.20785 
  497360    1.0302968   -1438.4078    1267.9345    282.24005 
  497370    1.0287229   -1437.9769    268.33159    287.47638 
  497380    1.0271418   -1437.3455   -537.16582    292.38092 
  497390     1.025607   -1436.7018   -225.78985    295.10972 
  497400    1.0241054   -1436.1551   -344.10729    302.64842 
  497410    1.0226429   -1435.5808   -859.76956    293.88517 
  497420    1.0212548   -1435.0106    -629.3392    280.00661 
  497430    1.0199292    -1434.368   -650.14855      304.326 
  497440    1.0186573   -1433.6556   -158.96844    295.83344 
  497450    1.0174179   -1433.0358   -458.11641    283.37372 
  497460    1.0162253   -1432.1726   -1171.8937    306.70147 
  497470    1.0151272   -1431.3686   -1461.6175    317.86377 
  497480     1.014142   -1430.6991   -1254.8334    290.89287 
  497490    1.0132639   -1430.1645   -1795.3402    320.28973 
  497500    1.0125148   -1429.7893    -1130.244    313.70893 
  497510    1.0118543    -1429.631    125.83116    266.37928 
  497520    1.0112083   -1429.3119   -845.20977    297.22871 
  497530    1.0106189   -1428.6711   -1045.3209    297.38731 
  497540    1.0101146   -1428.1148   -1234.4653    298.07609 
  497550    1.0097037    -1427.441   -1365.2749    291.38085 
  497560    1.0093976   -1426.7641   -1482.0181    298.76063 
  497570    1.0091997   -1425.9406   -1480.9358    298.33101 
  497580    1.0091167    -1425.214   -1997.3703     309.1723 
  497590    1.0091733    -1424.375   -2009.4448    289.97242 
  497600     1.009381   -1423.6793    -2089.876     307.7737 
  497610    1.0097326   -1422.8788   -1504.7387    294.58684 
  497620    1.0101951    -1422.046   -1491.5194     289.7173 
  497630    1.0107653   -1421.1454   -1898.9463    314.01812 
  497640    1.0114588    -1420.187   -1044.9352    297.11406 
  497650    1.0122339   -1419.3333   -1060.2935     291.5279 
  497660    1.0130838   -1418.2902   -1872.0883    303.08763 
  497670    1.0140584   -1417.2138    -2051.229    304.56092 
  497680    1.0151744   -1416.1348   -2043.8579    311.19513 
  497690    1.0164321   -1415.1362   -1763.2449    298.20876 
  497700    1.0178072   -1414.0539   -1187.6102    291.83063 
  497710    1.0192645   -1412.8717   -1364.3181    308.60845 
  497720    1.0208068   -1411.5539   -1315.1344     296.0429 
  497730    1.0224377   -1410.2282   -1532.3833    306.34144 
  497740    1.0241607   -1408.8006   -1100.0559    308.10872 
  497750    1.0259506   -1407.3496   -953.30708    309.55087 
  497760    1.0277945   -1405.9683   -586.75422    298.81136 
  497770    1.0296624   -1404.4179    67.033009    291.42114 
  497780    1.0315124   -1402.7345    149.70583    329.01823 
  497790    1.0333196    -1400.934    1675.1229    285.87195 
  497800    1.0349987   -1399.1714    1933.7978    290.47566 
  497810     1.036519   -1397.0176    1788.3098    311.78342 
  497820    1.0378924   -1394.7737    1596.1166    310.65277 
  497830    1.0391331   -1392.6421    1616.8347    312.30701 
  497840    1.0402363   -1390.5617    2313.9314    301.93002 
  497850    1.0411635   -1388.5821    2307.3675     327.2336 
  497860    1.0419059   -1386.6382    2542.8478    306.18684 
  497870    1.0424622   -1385.0641    1976.2327     333.6449 
  497880    1.0428609   -1383.7795    2088.6625    322.92295 
  497890     1.043099   -1382.8656    2153.7466    322.29125 
  497900    1.0431809   -1382.3734    1954.2388    314.51051 
  497910    1.0431196   -1381.9866    1484.7296    304.50909 
  497920    1.0429514    -1381.826    981.69055    316.33565 
  497930     1.042712   -1381.8504    844.72861    306.77164 
  497940    1.0424129   -1381.9888    601.27209    299.71022 
  497950    1.0420815   -1382.3484   -412.61537    322.21215 
  497960     1.041776   -1383.0441   -611.47458    325.10626 
  497970    1.0415138    -1384.212    205.30849    299.31928 
  497980    1.0412428    -1385.656    668.33788    299.23171 
  497990    1.0409297   -1387.5237    299.06315    316.55617 
  498000    1.0406005   -1390.0428   -507.74168    321.85898 
  498010    1.0403037   -1393.3132   -346.15871     318.6095 
  498020    1.0400343   -1397.3262    210.68637    311.52489 
  498030     1.039755    -1401.707    321.94551    314.50874 
  498040     1.039451   -1406.3753    464.77335    309.53997 
  498050      1.03912   -1410.8523    464.07274     303.4089 
  498060    1.0387557    -1414.719     627.2764    295.26708 
  498070    1.0383564   -1418.1691   -174.20265    311.23703 
  498080    1.0379724   -1421.1963   -1019.0702    305.86742 
  498090     1.037666   -1423.8329   -1482.2413    301.80944 
  498100    1.0374661   -1425.9134   -1122.2526    284.44766 
  498110    1.0373532   -1427.5379   -1077.6683    286.15375 
  498120    1.0373202   -1428.8143   -1195.5933    292.01352 
  498130    1.0373742   -1429.8249   -1408.1412    292.95944 
  498140    1.0375299   -1430.7761   -1542.0637    308.95382 
  498150    1.0377918   -1431.8654   -1021.2982     316.0978 
  498160    1.0381223   -1433.1747   -159.01405    308.99131 
  498170    1.0384594   -1434.4795     547.7445    302.58946 
  498180    1.0387536   -1435.9758    950.47318    313.61333 
  498190    1.0389683   -1437.4593     1955.437    297.69885 
  498200    1.0390474   -1439.1227    1886.6308     312.0424 
  498210    1.0389827   -1440.8736    2341.7427    301.23868 
  498220    1.0387454   -1442.5064    2747.2111    281.25613 
  498230    1.0383198   -1444.1084    1742.3811    305.49608 
  498240    1.0377615   -1445.6281    1907.7132    285.31263 
  498250    1.0370753   -1446.9186    1680.0959    277.62571 
  498260    1.0362824   -1448.0745     98.27034    303.13768 
  498270    1.0354848   -1449.0694    -826.3004    296.54214 
  498280    1.0347508   -1450.1742   -722.18606    304.27739 
  498290    1.0340724   -1451.2344    124.06818    292.08289 
  498300     1.033397   -1452.5277    287.93473    308.62662 
  498310    1.0326977   -1453.5809    1181.1043    269.26207 
  498320    1.0319325   -1454.6417    473.35191    296.60781 
  498330    1.0311282   -1455.4404    938.13817    281.45893 
  498340    1.0302754   -1456.2739    315.76061    294.50429 
  498350    1.0294039   -1456.7261   -27.683191    270.40948 
  498360    1.0285549   -1457.1212   -1563.7302    302.10057 
  498370    1.0278206    -1457.201   -2174.6988    276.33118 
  498380    1.0272613   -1457.2249   -3328.0225     284.6572 
  498390    1.0269415   -1456.8837   -3275.0196     271.2354 
  498400    1.0268635   -1456.3315   -2963.6529     277.6912 
  498410    1.0269979   -1455.2807   -2351.8729    259.44258 
  498420    1.0273107    -1453.787   -2588.3357    281.61402 
  498430    1.0277984   -1451.5922   -1542.5343    259.30403 
  498440    1.0284035   -1448.8419   -1459.5879    289.95973 
  498450    1.0291007   -1445.2698   -821.73435    282.10775 
  498460    1.0298543   -1441.3885   -240.26485    296.07399 
  498470    1.0306125   -1437.2986    861.41587    292.02489 
  498480    1.0313049   -1433.2885    1243.5152    296.54157 
  498490    1.0318991   -1429.6885    1711.6525    293.84544 
  498500    1.0323638   -1426.4777    1836.9016    303.64905 
  498510    1.0326936   -1423.8322    1412.1279    314.17991 
  498520    1.0329099    -1421.825    1750.9062    308.39988 
  498530    1.0329885   -1420.3668    3024.7409    301.13238 
  498540    1.0328534   -1419.3209    3213.6568    308.35616 
  498550    1.0324866   -1418.6188     2751.903    324.34176 
  498560    1.0319166   -1418.3498    2859.3865    321.77716 
  498570    1.0311437   -1418.5794    2834.2169    323.67379 
  498580      1.03017   -1419.1144    2993.5271     305.5387 
  498590    1.0289926   -1419.9485    2344.8142    327.13731 
  498600    1.0276469   -1421.0326    2675.5397    306.74168 
  498610    1.0261253   -1422.3559    2475.7981    305.35808 
  498620    1.0244388   -1423.6223    1957.6658    302.41159 
  498630    1.0226336   -1425.0097    846.39965    322.01762 
  498640    1.0207801   -1426.4982    759.70944    295.56258 
  498650    1.0189013   -1427.8781     46.77974     287.9764 
  498660    1.0170435   -1429.1447   -1002.8707    311.84024 
  498670    1.0152744   -1430.4133    -1125.534    300.72554 
  498680    1.0136138   -1431.7515   -1457.4983    295.31701 
  498690    1.0120814   -1432.9205   -1773.7144    280.07897 
  498700    1.0107034   -1433.7811   -2538.8457    280.45714 
  498710    1.0095264   -1434.4155   -3121.7852    288.68114 
  498720    1.0085917   -1434.9589   -3407.8708    297.17054 
  498730    1.0079113   -1435.4226   -2778.5552    276.17669 
  498740    1.0074451    -1435.709   -2145.7593    269.15216 
  498750    1.0071425    -1435.726   -2115.9942    299.90654 
  498760    1.0069885   -1435.6377   -1313.5794     285.3582 
  498770    1.0069359    -1435.442   -733.22047    270.61234 
  498780    1.0069388   -1434.9021   -580.52649    289.09437 
  498790    1.0069814   -1434.1208   -331.09911    294.04089 
  498800      1.00705   -1433.2002   -439.32741    296.15349 
  498810    1.0071442   -1432.0539    73.149287    285.16601 
  498820    1.0072342    -1430.696    312.85806    296.59975 
  498830       1.0073   -1428.9743    158.88531    310.60569 
  498840    1.0073514   -1427.1213    158.12884    296.83002 
  498850     1.007397   -1425.0866   -558.32447    308.49114 
  498860    1.0074791   -1422.7775   -790.99436     300.5286 
  498870    1.0076211   -1420.3098   -1318.0145    325.68975 
  498880    1.0078477   -1417.7273   -624.90507    310.68668 
  498890    1.0081229   -1415.3603   -308.01766    304.22411 
  498900    1.0084176   -1412.7521   -473.20893    320.52132 
  498910    1.0087365   -1410.1856    210.07255    307.12728 
  498920    1.0090432   -1407.7254    89.794209     317.7293 
  498930    1.0093386   -1405.2847    21.911181    313.63859 
  498940    1.0096321   -1403.1452   -152.42104    310.37944 
  498950    1.0099294   -1401.0163   -82.972064    309.05973 
  498960    1.0102334   -1399.0592    -216.2665    315.24363 
  498970    1.0105517   -1397.2699   -636.45553    320.22064 
  498980    1.0109101   -1395.6838   -771.36135     315.3703 
  498990    1.0113192   -1394.4473   -394.21049    318.74441 
  499000    1.0117475   -1393.4029    488.39356    312.19991 
  499010    1.0121412   -1392.6301    661.62339    310.71126 
  499020    1.0124871   -1391.9879   -50.813836     321.2797 
  499030    1.0128257   -1391.6548    212.45686    322.19221 
  499040    1.0131383   -1391.6327    1554.8101    301.66464 
  499050    1.0133393    -1391.656    2028.1453      279.566 
  499060    1.0134053   -1391.6173    521.12048    312.25852 
  499070    1.0134212   -1391.5838    8.6804647    317.85218 
  499080    1.0134359   -1391.8531    -38.68847    298.94253 
  499090    1.0134586   -1392.3081   -642.64074    311.10205 
  499100    1.0135206    -1393.035   -607.70733    320.69092 
  499110    1.0136233   -1394.4336    26.129974    318.47864 
  499120    1.0137184   -1396.1332    1152.8673    285.94774 
  499130    1.0137399   -1398.4495    916.68523    318.10017 
  499140    1.0136813   -1401.0485    1624.2714    291.10254 
  499150    1.0135184   -1404.2918    779.83182    317.82333 
  499160    1.0132924    -1407.741    396.57701    297.42487 
  499170    1.0130448   -1411.6935   -281.85821    317.78204 
  499180    1.0128111   -1415.7069    104.12318    299.28864 
  499190    1.0125732   -1419.4869    230.56885    295.72717 
  499200    1.0123249   -1423.0802   -327.31485    314.83585 
  499210     1.012096   -1426.4274   -317.94645    303.52766 
  499220    1.0118949   -1429.5664   -111.21308    307.31132 
  499230    1.0116938   -1432.2981    1163.7102    288.86556 
  499240    1.0114145   -1434.4274    1750.2748    273.22385 
  499250    1.0110181   -1436.1609    1034.2155    299.69408 
  499260    1.0105356   -1437.4779    1582.6722    271.02434 
  499270    1.0099546   -1438.5329    988.80927    283.33114 
  499280    1.0093048    -1439.222    195.62675    299.13637 
  499290    1.0086447   -1439.8048   -220.71616    287.41466 
  499300    1.0080136   -1440.2653   -1137.6969    290.54543 
  499310    1.0074639    -1440.558   -1295.8343    292.07043 
  499320    1.0070128   -1440.7085   -1011.7873     277.9269 
  499330    1.0066458   -1440.6759   -1472.6546    293.84117 
  499340    1.0063854   -1440.5347   -1729.9348    308.06231 
  499350    1.0062491    -1440.496   -1137.1273    294.57552 
  499360    1.0061957   -1440.4463    -455.0415    289.16108 
  499370    1.0061823   -1440.3118   -594.38431    291.92146 
  499380    1.0062111   -1440.0689   -746.65489    293.40776 
  499390    1.0062931   -1439.7535   -782.31744    288.82641 
  499400    1.0064314   -1439.2929   -754.34192    288.18129 
  499410    1.0066209   -1438.6229   -459.76652    284.98619 
  499420    1.0068489   -1437.7662   -830.48483    291.16402 
  499430    1.0071335   -1436.7329   -1143.7385    304.32978 
  499440    1.0074981   -1435.6461   -1131.9674    289.41098 
  499450    1.0079409    -1434.395   -1159.8177    299.50967 
  499460    1.0084632   -1433.1095   -720.37442    307.28462 
  499470    1.0090252   -1431.6162     632.1124    266.95615 
  499480    1.0095505   -1429.9392    379.31427    299.54707 
  499490    1.0100328   -1427.7374    801.21678    299.51016 
  499500    1.0104555    -1425.422    1069.1918    290.89511 
  499510    1.0107993   -1422.9668    954.45781    321.50426 
  499520    1.0110546   -1420.3482    2336.7733    298.20465 
  499530    1.0111509    -1418.004    2145.6028    317.34982 
  499540    1.0110884   -1415.6047    1640.3502    304.23682 
  499550    1.0109118   -1413.4395    933.16481    308.72476 
  499560    1.0106643   -1411.3296    839.49237    311.56012 
  499570    1.0103544   -1409.4232    1140.9078    311.89267 
  499580    1.0099629   -1407.7138    1475.9645    293.49661 
  499590    1.0094689   -1406.0801    1551.4618    299.18611 
  499600    1.0088659   -1404.4085     1406.815    317.04827 
  499610    1.0081589   -1402.8337    1788.0259    303.62806 
  499620    1.0073345   -1401.5402    1525.4081    312.97887 
  499630    1.0063995   -1400.3186    1741.8031    316.32192 
  499640    1.0053435   -1399.4498    2397.8859    301.43373 
  499650    1.0041234   -1398.7293    2726.9597    301.05734 
  499660    1.0027165   -1398.0245    2592.2608    307.77809 
  499670    1.0011374   -1397.5064    1972.0689    318.65619 
  499680   0.99942627   -1396.9219    1765.2634    278.66222 
  499690      0.99762   -1396.3279    10.574171    327.23587 
  499700   0.99581977   -1395.5457   -703.48292    319.74076 
  499710    0.9940946   -1395.0355   -1328.5059    309.61867 
  499720   0.99248977   -1394.7296   -2008.6697    327.88716 
  499730   0.99104051   -1394.6743   -1735.0053    310.64474 
  499740   0.98973786   -1395.0398   -1435.4785    303.60554 
  499750   0.98855264   -1395.6098   -1115.3157    303.57916 
  499760   0.98746756   -1396.6037   -1090.8583    314.30847 
  499770   0.98647316   -1398.1942   -1243.0128    325.57505 
  499780   0.98558134   -1400.5178   -1332.7924    302.20336 
  499790   0.98480586   -1403.5053   -2248.9028    326.77354 
  499800   0.98419271   -1407.4603   -1851.1689    315.74667 
  499810    0.9837231   -1411.6667   -1116.4701    295.97436 
  499820   0.98333958   -1415.5186   -891.55528    278.23964 
  499830   0.98303708   -1419.3932   -1883.2834    310.97681 
  499840   0.98286195    -1422.777   -1384.6095    275.55094 
  499850   0.98279559   -1425.4693   -1538.0429    277.96255 
  499860   0.98284311   -1427.7931   -2068.4292    290.86948 
  499870   0.98303535   -1429.6777   -1850.6061    277.91589 
  499880   0.98336117   -1431.2633   -1560.2482    287.24048 
  499890   0.98379108   -1432.3697   -789.76466    264.74464 
  499900   0.98428278   -1433.1908   -1251.9474    285.36736 
  499910   0.98485519   -1433.6973   -1281.5882    277.44087 
  499920   0.98551671   -1433.8981    -1352.412     274.6733 
  499930   0.98626656   -1433.8901   -1267.8606    293.83531 
  499940   0.98709402   -1433.6934   -612.99146    273.86644 
  499950   0.98796001   -1433.1913   -424.80666    266.76404 
  499960   0.98885024   -1432.3851   -689.90107    291.02457 
  499970   0.98976985   -1431.1811   -34.967337    273.52885 
  499980   0.99068837   -1429.8638   -80.400824    298.42539 
  499990   0.99159278   -1428.2029    575.00772    278.63482 
  500000   0.99245564   -1426.4941   -108.25376     306.9943 
Loop time of 4056.4 on 2 procs for 500000 steps with 375 atoms

Performance: 10.650 ns/day, 2.254 hours/ns, 123.262 timesteps/s
99.7% CPU use with 2 MPI tasks x 1 OpenMP threads

MPI task timing breakdown:
Section |  min time  |  avg time  |  max time  |%varavg| %total
---------------------------------------------------------------
Pair    | 3074.4     | 3167.1     | 3259.8     | 164.7 | 78.08
Bond    | 0.65743    | 0.67063    | 0.68383    |   1.6 |  0.02
Kspace  | 402.9      | 495.61     | 588.33     | 416.5 | 12.22
Neigh   | 64.867     | 64.872     | 64.878     |   0.1 |  1.60
Comm    | 73.452     | 74.265     | 75.078     |   9.4 |  1.83
Output  | 1.2626     | 2.5805     | 3.8983     |  82.0 |  0.06
Modify  | 234.12     | 238.51     | 242.91     |  28.4 |  5.88
Other   |            | 12.77      |            |       |  0.31

Nlocal:    187.5 ave 188 max 187 min
Histogram: 1 0 0 0 0 0 0 0 0 1
Nghost:    6922.5 ave 6955 max 6890 min
Histogram: 1 0 0 0 0 0 0 0 0 1
Neighs:    113860 ave 114222 max 113499 min
Histogram: 1 0 0 0 0 0 0 0 0 1

Total # of neighbors = 227721
Ave neighs/atom = 607.256
Ave special neighs/atom = 2
Neighbor list builds = 13369
Dangerous builds = 0

#write_restart wat.restart
Total wall time: 1:08:22
