
variable systemNsize equal 10
variable rndSeed equal 1234
variable Nrun equal 500000
variable Nstab equal 5000
variable NdumpStats equal 10
variable NdumpFrames equal 1000
variable Text equal 298.0
variable Pext equal 1.0

units real
    # g/mol, A, fs, Kcal/mol, K, atm, g/cm^3
atom_style full
read_data SPCE.data
  orthogonal box = (0 0 0) to (3.1 3.1 3.1)
  1 by 2 by 2 MPI processor grid
  reading atoms ...
  3 atoms
  scanning bonds ...
  2 = max bonds/atom
  scanning angles ...
  1 = max angles/atom
  reading bonds ...
  2 bonds
  reading angles ...
  1 angles
  2 = max # of 1-2 neighbors
  1 = max # of 1-3 neighbors
  1 = max # of 1-4 neighbors
  2 = max # of special neighbors
  special bonds CPU = 0.000527859 secs
  read_data CPU = 0.00497198 secs

replicate ${systemNsize} ${systemNsize} ${systemNsize}
replicate 10 ${systemNsize} ${systemNsize}
replicate 10 10 ${systemNsize}
replicate 10 10 10
  orthogonal box = (0 0 0) to (31 31 31)
  1 by 2 by 2 MPI processor grid
  3000 atoms
  2000 bonds
  1000 angles
  2 = max # of 1-2 neighbors
  1 = max # of 1-3 neighbors
  1 = max # of 1-4 neighbors
  2 = max # of special neighbors
  special bonds CPU = 0.000346899 secs
  replicate CPU = 0.00172305 secs

include SPCE.pot
# Original model from Berendsen et al, J Phys Chem 91:6269 (1987)
# Charges and geometry are specified in the ".data" file.

mass 1 1.008 # H
mass 2 15.9994 # O

#pair_style lj/cut/coul/dsf 0.05 10.0
pair_style lj/cut/coul/long 12.0
    # LJ_Rcut (Coul_Rcut)
#pair_style lj/cut/tip4p/long 2 1 1 1 0.15 12.0

pair_modify tail yes
    # assumtions and approximations:
    # 1) 3d bulk homogeneous liquid (+)
    # 2) RDF is unity beyond the cutoff (?)
    # 3) It's computed at the begining of the run, so N of particles shouldn't be changed (+)
    # 4) atoms don't feel additional energy but it's added to the PE etc
#kspace_style pppm/tip4p 1.0e-5
kspace_style pppm 1.0e-5
    # accuracy - desired relative error in forces

pair_coeff 1 1 0.00000 0.000
pair_coeff 1 2 0.00000 0.000
    # TODO - I would put here the sizes of H and O atoms instead of one big LJ repulsion from the O atom. What "e" to choose is still a question.
pair_coeff 2 2 0.1550 3.1536
    # epsilon, sigma, [LJ_Rcut, [Coul_Rcut]]
    # distance between H and O is 1.0 so 3.166 > 1.0 accounts for the size of a molecule as a whole
    # I guess the major part in forces inside a molecule are indeed due to OH and HOH (angle) bondings, so computing LJ and Coul for them would be practically a waste of time so it may be ommitted. So I see only an optimizational reason to set LJ coefs to 0 for H atoms inside a molecule. However here (as far as I understand) we set all LJ coefs to 0. I understand LJ is a short-rage potential so its contribution can be neglegible compared to Coul, but it's not obvious for me why it actually is.
    # TODO - there might be a more correct way to ommit unnecessary interaction by using special_bond

bond_style harmonic
    # E = k(r-r0)^2
bond_coeff 1 0.0 1.0
    # bondID k r0
    # ? - how does k=0 make sense?
    # Is this to formaly bond atoms but actual bonding is done by rattle?

angle_style harmonic
angle_coeff 1 0.0 104.52
    # ? - same, how does k=0 make sense?


velocity all create ${Text} ${rndSeed}
velocity all create 298 ${rndSeed}
velocity all create 298 1234

fix removeMomentum all momentum 1 linear 1 1 1 angular
    # 1 - adjust the momentum every 1 timesteps
    # linear 1/0 1/0 1/0 - zero the P_x/y/z
    # angular - zero angular momentum (TODO - add "angular" here?)
    # scale - scale velocities after the adjustment so T is conserved (TODO - add "scale" here?)

fix stab_iso all npt temp ${Text} ${Text} $(50.0*dt) iso ${Pext} ${Pext} $(500.0*dt)
fix stab_iso all npt temp 298 ${Text} $(50.0*dt) iso ${Pext} ${Pext} $(500.0*dt)
fix stab_iso all npt temp 298 298 $(50.0*dt) iso ${Pext} ${Pext} $(500.0*dt)
fix stab_iso all npt temp 298 298 50 iso ${Pext} ${Pext} $(500.0*dt)
fix stab_iso all npt temp 298 298 50 iso 1 ${Pext} $(500.0*dt)
fix stab_iso all npt temp 298 298 50 iso 1 1 $(500.0*dt)
fix stab_iso all npt temp 298 298 50 iso 1 1 500
    # Tstart,Tstop = external temperature at start/end of run
    # Tdamp = temperature damping parameter (time units)
    # temp - for thermostat, iso - for barostat

fix stab_constrain all rattle 1.0e-5 100 0 b 1 a 1
  0 = # of size 2 clusters
  0 = # of size 3 clusters
  0 = # of size 4 clusters
  1000 = # of frozen angles
  find clusters CPU = 0.000437021 secs
    # fix ID group-ID shake tol iter N constraint1 value1 ...
    # iter - max # of iterations in each SHAKE solution
    # print SHAKE statistics every N many timesteps (0 = never)
    # b - bonds, a - angles
    # b 1 - bonds of type 1
    # a 1 - bonds of type 1
    # shake adds forces to make the displacement satisfy constraints - e.g. |r_ij|=d
    # rattle does the same and additionally it refines velocities - e.g. (|r|)'_t = 0.
    # *should be defined after other force- and v- modifiers since it doesn't account for them

thermo_style custom step density press temp
thermo ${NdumpStats}
thermo 10
run ${Nstab}
run 5000
PPPM initialization ...
  using 12-bit tables for long-range coulomb (src/kspace.cpp:332)
  G vector (1/distance) = 0.258189
  grid = 24 24 24
  stencil order = 5
  estimated absolute RMS force accuracy = 0.0031521
  estimated relative force accuracy = 9.49246e-06
  using double precision FFTW3
  3d grid and FFT values/proc = 11191 3456
Neighbor list info ...
  update every 1 steps, delay 10 steps, check yes
  max neighbors/atom: 2000, page size: 100000
  master list distance cutoff = 14
  ghost atom cutoff = 14
  binsize = 7, bins = 5 5 5
  1 neighbor lists, perpetual/occasional/extra = 1 0 0
  (1) pair lj/cut/coul/long, perpetual
      attributes: half, newton on
      pair build: half/bin/newton
      stencil: half/bin/3d/newton
      bin: standard
Per MPI rank memory allocation (min/avg/max) = 11.35 | 11.35 | 11.35 Mbytes
Step Density Press Temp 
       0    1.0041715    16088.742    296.44808 
      10    1.0015167    11922.393    492.42764 
      20   0.99568229   -10633.529    1358.6239 
      30   0.99228062    -12785.32    1395.3875 
      40    0.9926572   -8819.6868    1166.2365 
      50    0.9956045   -6919.4881    1088.2507 
      60    1.0003274   -5049.2151    1054.3974 
      70    1.0060686   -2897.9904     1027.887 
      80    1.0119935   -1198.2987    981.51405 
      90    1.0174717   -770.63786    974.07775 
     100    1.0222943     297.8253    905.28368 
     110    1.0262977    56.963417    847.50392 
     120     1.029679   -1050.4663    832.82229 
     130     1.032852   -2181.1136    820.22214 
     140    1.0361205   -1544.0613    752.26161 
     150    1.0394598   -2086.1619    728.60824 
     160    1.0429798   -2232.6547    699.77628 
     170    1.0467351   -1825.3801    683.90105 
     180    1.0505726   -1169.6519    640.10855 
     190    1.0543694    -1445.499    626.52366 
     200    1.0581989   -1837.5487    594.75794 
     210    1.0621514   -1951.2458    575.87228 
     220     1.066265   -2195.7551    562.15079 
     230    1.0705322   -2006.3806    531.41472 
     240    1.0748826   -2097.6793    519.91595 
     250    1.0793106   -2280.4574    501.34239 
     260    1.0838281   -2477.6427    494.41017 
     270     1.088424   -2142.7806    474.31179 
     280     1.093001   -1966.4866    448.34723 
     290    1.0974803   -1880.6444    437.44609 
     300    1.1018316   -1924.9662    437.99911 
     310    1.1060636   -1447.1552    412.21068 
     320    1.1100998   -1438.3463    412.08696 
     330    1.1139107   -1236.6747    393.99648 
     340    1.1175115   -1322.9142    383.82654 
     350    1.1209803   -1427.5355    385.04065 
     360    1.1243559   -1424.3159    371.76453 
     370     1.127652   -1416.4769     363.6967 
     380    1.1308873   -1156.3672    351.19811 
     390    1.1340198   -910.87742    334.73534 
     400    1.1370195   -1240.0569    340.06433 
     410    1.1399345    -500.8838    316.24542 
     420    1.1426684   -870.50107    323.07812 
     430    1.1452821   -653.20127    309.27404 
     440    1.1477745   -664.48811    315.37585 
     450    1.1501335    -258.8362    296.29278 
     460    1.1523123   -457.18353    307.58101 
     470    1.1543456    53.222722    294.28223 
     480     1.156137    476.13054    285.33623 
     490    1.1576242    189.76951    288.57677 
     500    1.1588951    15.829214    289.19443 
     510    1.1600141    275.04404    279.50854 
     520    1.1609571    203.30675    273.15931 
     530    1.1617831   -483.92921    280.87774 
     540    1.1626487   -492.65924    278.19267 
     550    1.1635575   -205.87131    275.28998 
     560    1.1644396    11.054648    273.62861 
     570    1.1652584    77.215177    277.44789 
     580     1.166008   -383.68173    291.47298 
     590    1.1667751   -337.72716    287.70023 
     600    1.1675704     58.42905    293.72492 
     610    1.1682902    314.49592    295.26189 
     620    1.1688779    329.19554     299.9174 
     630    1.1693278    386.23817    306.65383 
     640    1.1696191     627.7872    296.41916 
     650    1.1697483   -81.245318     309.5191 
     660    1.1698674   -213.50538    305.70171 
     670    1.1700334   -57.386008    301.91647 
     680    1.1702087    19.307007    309.40565 
     690    1.1703613    227.98015     303.4324 
     700    1.1704487    306.05519    308.25435 
     710    1.1704469    287.02287    305.29993 
     720    1.1703873   -448.74953    317.30139 
     730    1.1704256   -202.91459    310.81637 
     740    1.1705295   -54.298539    312.65655 
     750    1.1706377    101.53792    312.68223 
     760    1.1707021    420.70504    306.53006 
     770    1.1706568    280.54462    307.96717 
     780    1.1705235    294.44663    304.10182 
     790    1.1703189    223.63735    302.44637 
     800    1.1700557    166.96861    294.16346 
     810    1.1697787   -160.04163    294.34241 
     820     1.169545   -9.1003912     287.0626 
     830    1.1693259   -107.24389    292.69619 
     840    1.1691381    116.91973     282.2245 
     850    1.1689538   -283.94212    295.20344 
     860    1.1688324    52.298938    289.25751 
     870    1.1687103    140.92832    288.54846 
     880    1.1685633   -149.94317     297.1711 
     890    1.1684482    80.639314    291.50854 
     900    1.1683163    347.81907    293.00626 
     910    1.1680947    579.79317    290.58738 
     920    1.1677253    408.36309    293.95114 
     930    1.1672562    96.091601    292.80534 
     940    1.1667734    115.76458     293.9748 
     950     1.166285   -60.840353    293.35982 
     960    1.1658468   -584.28334    297.16502 
     970    1.1655681   -146.70809    292.92706 
     980    1.1653407    558.48985    286.19913 
     990    1.1649813    584.64152    289.61558 
    1000    1.1644826    48.578429    302.78065 
    1010     1.163974   -201.33228    307.67985 
    1020    1.1635389   -122.84897     304.4715 
    1030    1.1631629   -25.200716    302.00347 
    1040    1.1628277   -453.01554    305.86062 
    1050    1.1626351   -658.53276    306.22879 
    1060    1.1626197   -228.63278    302.29131 
    1070    1.1626695    188.41855    300.06797 
    1080     1.162668    361.86075    300.32125 
    1090    1.1625668    457.68895    300.02699 
    1100    1.1623553   -68.442726    306.76232 
    1110    1.1621525    -141.4771    303.61013 
    1120    1.1619963   -42.422714    306.96788 
    1130     1.161839    359.59166    295.80029 
    1140    1.1615996    178.07072    300.77412 
    1150    1.1613259     -207.712    301.27633 
    1160    1.1611143   -204.35377    303.97806 
    1170    1.1609511    287.78591    294.89388 
    1180    1.1607269    150.08056    294.20514 
    1190     1.160459    129.59476    294.09033 
    1200    1.1601551    304.68062    288.31701 
    1210    1.1597935    22.733326    288.06503 
    1220    1.1594457   -353.21446    295.87279 
    1230    1.1591987   -406.47279    294.38544 
    1240    1.1590755   -228.05792     292.2297 
    1250    1.1590295    -151.4514    298.00998 
    1260    1.1590044    329.30916    286.25331 
    1270    1.1589177   -52.741701    300.85374 
    1280    1.1588374   -113.82301    305.14536 
    1290     1.158778    170.41006    308.38973 
    1300    1.1586535    710.11257    301.24168 
    1310     1.158347    708.96626    299.33972 
    1320    1.1578562    378.35843    298.75694 
    1330    1.1572882   -334.09477      298.995 
    1340    1.1568159   -711.09791    297.80596 
    1350    1.1565545   -850.02089    287.62644 
    1360    1.1565716   -1406.1233    295.62398 
    1370    1.1569752   -1045.1804    294.03718 
    1380    1.1576663   -429.87136    292.78575 
    1390    1.1584697   -339.88407    292.11711 
    1400    1.1593389   -5.8876514    295.03193 
    1410    1.1601867    512.90295     297.7503 
    1420     1.160859    1093.6233    298.81856 
    1430    1.1611976    1480.9579    300.35572 
    1440    1.1610916    1562.8256    296.45068 
    1450    1.1605591    1067.6592    304.49335 
    1460    1.1597096    1062.5009     297.0406 
    1470    1.1585958    552.24436    302.78457 
    1480    1.1573485    160.95589    297.01732 
    1490    1.1561185   -773.93276    311.99126 
    1500    1.1551146    -789.4119    305.08839 
    1510    1.1543676    -620.9237     300.6376 
    1520    1.1538346   -660.05021     299.9392 
    1530    1.1535104   -924.71415    302.16098 
    1540    1.1534505   -836.57148    293.95042 
    1550    1.1536591   -1120.3412    298.59149 
    1560    1.1541806   -1281.3303     296.4651 
    1570    1.1550546   -1123.4482    293.83913 
    1580    1.1562393   -948.65611     300.5312 
    1590    1.1576509   -253.00922    296.04859 
    1600       1.1591    457.91693    296.42875 
    1610    1.1603742    755.95558    296.39748 
    1620    1.1613874    758.72836    294.92541 
    1630    1.1621687    404.42461    296.28174 
    1640    1.1628133    24.526901    296.58795 
    1650    1.1634196    42.119155    287.72112 
    1660    1.1640133   -157.67075    293.07992 
    1670    1.1646221   -78.834646    288.74943 
    1680    1.1652392   -223.55684    297.42036 
    1690    1.1658843    73.787398    292.99274 
    1700     1.166512   -66.847973    300.67056 
    1710    1.1671272    119.09298    304.37547 
    1720    1.1676745     656.1972    305.64507 
    1730     1.168019    640.15053    305.68765 
    1740    1.1681703    560.66754    304.36968 
    1750    1.1681764    268.86235    304.72687 
    1760    1.1680954   -18.207804    304.34008 
    1770     1.168012   -238.13367    300.00364 
    1780    1.1679955   -73.129952    296.12095 
    1790    1.1680148   -71.385625    298.38809 
    1800    1.1680431   -93.604887    297.00958 
    1810    1.1680951   -81.524532    299.89353 
    1820    1.1681698     49.60823    298.26379 
    1830    1.1682272    38.339721    296.68534 
    1840    1.1682762    1.9629555    295.04605 
    1850    1.1683229     244.1223     295.3316 
    1860    1.1683078    70.613399     297.3567 
    1870     1.168261    29.569318    294.89425 
    1880    1.1682141   -148.50392    300.56449 
    1890    1.1681987   -40.629938     293.3457 
    1900    1.1682094   -117.06871    292.46667 
    1910    1.1682585   -233.43001     299.3807 
    1920    1.1683554    82.710006    293.32305 
    1930    1.1684538   -225.64674     301.0276 
    1940     1.168604    -401.7379    300.73347 
    1950    1.1688566   -178.28809    298.06086 
    1960    1.1691663    128.78701    294.70826 
    1970    1.1694526   -184.47464    302.59724 
    1980    1.1697647   -163.23139    297.26125 
    1990    1.1701199    20.888015    300.57737 
    2000    1.1704508    413.44166    296.38299 
    2010    1.1706614    550.18759    289.56136 
    2020    1.1707204    338.98718    297.70791 
    2030    1.1706548    609.73574    290.27932 
    2040    1.1704331    441.97646    297.48023 
    2050    1.1700816    192.21013    295.71463 
    2060    1.1696788   -127.15731    299.86775 
    2070    1.1693093   -122.04455    294.41582 
    2080    1.1689884   -208.81216    296.25374 
    2090    1.1687348   -178.74881     301.9148 
    2100    1.1685262    230.77939    296.64971 
    2110    1.1682582    306.74576    303.22778 
    2120    1.1678846     672.8402    293.69336 
    2130    1.1673422    529.01253    302.61044 
    2140    1.1666463    523.31901    306.24237 
    2150    1.1658027    547.38834    303.02785 
    2160    1.1648033    653.36172    304.00543 
    2170    1.1636356      598.999    299.52272 
    2180    1.1623055     430.3636    291.48192 
    2190    1.1609073    -542.2418    301.18635 
    2200      1.15967   -868.16081    291.56677 
    2210    1.1587146   -1144.9863     289.2439 
    2220    1.1581208   -1354.6015    292.25935 
    2230    1.1579248   -1259.0475    291.89016 
    2240    1.1580989   -1082.1213    295.43379 
    2250    1.1585891    -835.8583    302.88371 
    2260    1.1592886     26.42744     295.6662 
    2270    1.1600039    -129.5876    302.69164 
    2280    1.1607363   -189.85143    303.67921 
    2290    1.1614962    198.88977    299.99796 
    2300    1.1621927    302.76014    298.94923 
    2310    1.1627931    270.25754    297.08909 
    2320    1.1633182   -111.75683    305.48596 
    2330    1.1638467    132.60612    303.34765 
    2340    1.1643264    501.43933    301.91536 
    2350    1.1646615    545.86658    306.46623 
    2360    1.1648128    800.17953     300.4286 
    2370    1.1647429    624.21808    298.19326 
    2380    1.1645079     57.40824    308.45619 
    2390    1.1642369    162.53502    293.96991 
    2400    1.1639502    -258.3626    304.06443 
    2410    1.1637325   -572.53888    305.83939 
    2420    1.1636613   -269.33742    295.88514 
    2430    1.1636856   -295.69246    294.66559 
    2440    1.1638004   -407.75702    291.78202 
    2450    1.1640226   -284.90142    287.30584 
    2460    1.1643364   -559.13312    288.16346 
    2470    1.1648094   -612.66591    289.28654 
    2480    1.1654403   -32.488479    291.54262 
    2490    1.1660592    1016.1658    286.63367 
    2500    1.1663892    1291.7139    286.97329 
    2510    1.1663445    1029.4653    294.88831 
    2520     1.165994    891.49598    296.57588 
    2530    1.1653971    452.00606    305.82857 
    2540    1.1646572    405.29344    303.21889 
    2550     1.163806    380.40123     294.0628 
    2560    1.1628737   -26.365005    295.70622 
    2570    1.1619632   -297.16548    303.26597 
    2580     1.161134   -234.32571    296.71976 
    2590    1.1604037   -609.02968    305.61936 
    2600    1.1598391   -328.87513    295.04932 
    2610    1.1594095   -814.36498    306.23336 
    2620    1.1591771   -180.23369    294.99122 
    2630    1.1590258   -97.112249     297.7081 
    2640    1.1589206   -304.62348    304.21697 
    2650    1.1588676    245.47924    297.50032 
    2660    1.1587654    50.286353    303.30487 
    2670    1.1586428    28.500126    302.40913 
    2680    1.1585106    239.24885    299.62963 
    2690    1.1583235   -151.52944    308.12354 
    2700    1.1581623   -46.852115     298.6633 
    2710    1.1580378   -392.41857    303.50707 
    2720    1.1580265   -778.37486    300.77502 
    2730    1.1582456   -982.51939    306.63243 
    2740    1.1587259    -436.0431    294.73597 
    2750     1.159341      -60.872    301.23326 
    2760    1.1599494    601.96005    291.95185 
    2770    1.1604035    531.65598    304.98638 
    2780    1.1606789    941.99526    300.67172 
    2790     1.160675    1265.0477    296.32873 
    2800    1.1603147    949.43919    289.45595 
    2810    1.1596873    370.01933    291.58222 
    2820    1.1589683   -275.32009    301.46111 
    2830    1.1583066   -440.74831    292.64045 
    2840     1.157781   -558.08575     291.6556 
    2850    1.1574194   -246.24055    281.61099 
    2860    1.1571558   -785.34046     287.6564 
    2870     1.157106   -892.55643    282.74106 
    2880    1.1573448    -1168.634    288.68558 
    2890    1.1579136   -877.20623    293.48811 
    2900    1.1587096    176.77332    289.47119 
    2910    1.1594654    643.88723    290.89307 
    2920    1.1600375    745.81585    298.36481 
    2930    1.1603921    857.40615    304.82078 
    2940    1.1604836    1083.6777    305.21574 
    2950    1.1602718    841.51706    310.19922 
    2960    1.1598188    449.52175    307.26048 
    2970    1.1592209     480.3684    305.17182 
    2980     1.158504   -32.460872    310.71288 
    2990    1.1577875   -363.97608    302.10953 
    3000    1.1571876   -563.90186    312.46176 
    3010    1.1567332   -136.61873    300.53185 
    3020    1.1563289   -93.206211    297.56823 
    3030     1.155973   -740.06675    302.99264 
    3040    1.1558108   -707.88277     295.0304 
    3050    1.1558702   -503.71885    298.36346 
    3060    1.1560836   -338.10246    299.16396 
    3070     1.156374    124.77605    292.88782 
    3080     1.156643   -8.6822432    297.13715 
    3090     1.156912   -177.30402    294.23021 
    3100    1.1572236    182.26172    294.10897 
    3110    1.1575012    140.50581    297.24841 
    3120    1.1577378   -309.97908    299.69584 
    3130    1.1580632   -455.86759    302.19605 
    3140    1.1585061    20.034865    293.57687 
    3150    1.1589498    130.17588    295.12696 
    3160    1.1593714    -198.1011     297.5078 
    3170    1.1598499   -181.26632    299.92801 
    3180    1.1603646    181.35454    290.79013 
    3190    1.1608501   -47.350441    289.72158 
    3200     1.161363   -271.70801     297.6925 
    3210    1.1619301    279.63768    298.01279 
    3220    1.1624041    1069.4329    285.01395 
    3230    1.1625946    893.34048    298.68162 
    3240    1.1625096    928.85594     290.3177 
    3250    1.1621568    726.30378     303.6564 
    3260    1.1615661    1046.3941    296.28237 
    3270    1.1606955    781.46513    303.40022 
    3280    1.1595781    477.72986    303.25348 
    3290    1.1583212   -72.267985    301.55899 
    3300    1.1570692    -201.3623    297.32535 
    3310    1.1558885   -413.20297    291.59404 
    3320    1.1548655   -1523.4337     304.4724 
    3330    1.1542444   -1336.4053     295.7468 
    3340    1.1540212   -962.67797    295.22532 
    3350    1.1540758   -479.60772     292.8324 
    3360    1.1542902   -381.44144     299.0605 
    3370    1.1546079   -310.61075    297.75018 
    3380    1.1550173   -136.65118    297.68628 
    3390    1.1554662    345.47187    294.40785 
    3400    1.1558324    244.98784    300.03241 
    3410    1.1561325   -97.378733    309.20295 
    3420    1.1564267    528.42456    299.51155 
    3430    1.1565884    483.95345    303.92341 
    3440    1.1566224   -66.549981    306.08218 
    3450    1.1566686    -493.8958    311.51231 
    3460    1.1568492   -528.90378    305.39897 
    3470    1.1571857   -450.25296    303.86865 
    3480    1.1576725   -344.12862    303.20215 
    3490    1.1582555   -166.58093    301.78091 
    3500    1.1588817    128.07172    292.23856 
    3510    1.1594971  -0.44921617     296.0421 
    3520    1.1601067    20.575969    297.70618 
    3530    1.1607084    208.19766    294.78405 
    3540    1.1612609    350.97133    296.13426 
    3550    1.1617157    437.14771    300.18768 
    3560    1.1620372    633.66713    292.88105 
    3570    1.1621914    459.28298     297.7775 
    3580    1.1621926    842.12047    290.82211 
    3590    1.1619564    576.41624    291.18137 
    3600    1.1615354    469.22249    286.91905 
    3610    1.1609969   -29.240257    292.95066 
    3620    1.1604424   -51.884777     290.7355 
    3630    1.1598955   -94.884024    286.71152 
    3640    1.1593692   -185.00931    286.49888 
    3650     1.158894    67.303844    290.68422 
    3660     1.158396    181.48966    287.50976 
    3670    1.1578576   -435.51409    299.95115 
    3680    1.1574146   -221.30817    299.53425 
    3690    1.1570292    175.57258    296.66167 
    3700    1.1566092   -142.28314    304.61546 
    3710    1.1562186   -324.07043     306.0594 
    3720    1.1559155   -255.47312    306.88312 
    3730    1.1556869   -157.87297    307.68706 
    3740    1.1554899   -22.863483    306.49961 
    3750    1.1552983    203.08407    301.11677 
    3760    1.1550568    64.801651    298.95092 
    3770    1.1548072   -507.18313    300.06347 
    3780    1.1547002   -983.85791     298.4682 
    3790    1.1548835   -1257.9457    301.07471 
    3800    1.1554239   -968.42262    303.26088 
    3810     1.156253   -581.06155    299.06831 
    3820    1.1572853   -342.97844    302.04029 
    3830    1.1584245    173.09657    294.80079 
    3840    1.1595371    209.56975    299.99728 
    3850    1.1606085    237.27369    296.44221 
    3860    1.1616354    196.08069    309.01294 
    3870    1.1625885    797.90696    302.17815 
    3880    1.1633189    1089.6691    300.59728 
    3890    1.1637507    1169.5491    305.86254 
    3900    1.1638466    1145.4716    303.25913 
    3910    1.1636044    818.08973    300.98756 
    3920    1.1631125      471.605    295.21543 
    3930    1.1624729    388.30492    285.43338 
    3940    1.1617236    44.650134    291.05416 
    3950    1.1609271    184.74174    286.14752 
    3960    1.1600767   -85.623673    291.29547 
    3970     1.159219    95.907713    293.34906 
    3980    1.1583089     692.1136    284.54131 
    3990    1.1572209    318.86781    288.93454 
    4000    1.1560312   -461.46027    295.92516 
    4010    1.1549425   -772.05587    296.18253 
    4020    1.1540732   -1020.7469    290.87413 
    4030    1.1535051   -1450.1945    294.64695 
    4040    1.1533424   -1267.8575    294.39889 
    4050    1.1535527   -717.43577    297.93707 
    4060     1.153971   -261.93749    300.55114 
    4070    1.1544681     294.5248    300.86188 
    4080    1.1549031    499.41742    305.84512 
    4090    1.1552019    251.53406    307.66309 
    4100    1.1554286    81.462851    309.45513 
    4110    1.1556332     47.51634    303.67611 
    4120    1.1558448   -287.60353    304.98593 
    4130    1.1561259   -17.052796    294.78477 
    4140    1.1564448   -271.38965    307.29688 
    4150    1.1568217   -61.341524    304.45912 
    4160    1.1572049    559.20629    295.78608 
    4170    1.1574475    901.55442    296.07375 
    4180    1.1574435    590.50458    298.34326 
    4190    1.1572494    429.33401    293.78825 
    4200     1.156933    116.34494    298.51496 
    4210    1.1565717   -176.20626    295.84882 
    4220    1.1562561   -545.47589    298.33036 
    4230    1.1560816   -362.38604    294.34898 
    4240    1.1560205   -235.04611    303.77878 
    4250    1.1560071    110.89532    292.00285 
    4260    1.1559793    2.4324833    304.69956 
    4270     1.155929    614.65516    294.71282 
    4280     1.155715    607.65104    300.57127 
    4290     1.155299    530.80628    294.04871 
    4300    1.1547459   -334.25589    300.77418 
    4310     1.154276   -933.88411    300.94955 
    4320    1.1540682   -957.64248    301.89702 
    4330    1.1541397   -861.20742    297.33944 
    4340    1.1544529   -594.37062    290.40199 
    4350    1.1549643   -245.95119    292.22334 
    4360     1.155554    240.13706    294.12721 
    4370    1.1560956    112.75377    299.42159 
    4380    1.1565938    424.34999     292.5891 
    4390    1.1569956    511.50775    298.59502 
    4400    1.1572552    703.76654    295.68958 
    4410      1.15731    945.97375    295.24047 
    4420    1.1570834    1015.0436     290.3524 
    4430    1.1565784    130.60879    300.15594 
    4440    1.1560116   -467.49744    302.64214 
    4450    1.1555432    -128.7034    296.95624 
    4460    1.1551104    170.90577     295.9656 
    4470    1.1546123    18.473853    293.19397 
    4480    1.1541045   -374.43452    297.93503 
    4490    1.1537126   -882.77783    305.49193 
    4500    1.1535639   -935.70877    307.43439 
    4510    1.1536635   -331.93182     294.0312 
    4520    1.1539026   -728.59712    303.69926 
    4530    1.1543519    -857.2583    297.74848 
    4540    1.1550688    -602.7119    300.42137 
    4550    1.1559821   -152.28461    296.20283 
    4560    1.1569761    45.618819    296.52986 
    4570    1.1579834    345.56861    298.95557 
    4580     1.158913    718.78045    292.63347 
    4590    1.1596855    215.57838    303.80215 
    4600    1.1603748    579.10615    295.57513 
    4610    1.1609216    806.73023    299.52487 
    4620      1.16125    672.47495    297.13515 
    4630    1.1613895    518.83836    302.41329 
    4640    1.1613581    1039.2072    295.72566 
    4650    1.1610436    511.97884    302.88414 
    4660    1.1605444    271.36529    297.16018 
    4670    1.1599688   -164.31506    301.36879 
    4680    1.1594129   -125.38446    296.94895 
    4690    1.1588905   -324.66901     299.5062 
    4700    1.1584352   -261.11283    293.59949 
    4710    1.1580465   -62.196606     291.4306 
    4720    1.1576734   -207.80941    295.43732 
    4730     1.157342   -207.09372    292.99501 
    4740    1.1570604   -129.28797    298.69878 
    4750    1.1568037    173.25778    294.16373 
    4760    1.1565074     146.0248    300.79527 
    4770    1.1561462    135.43088    298.82675 
    4780    1.1557468   -235.16335     301.5986 
    4790    1.1553838   -125.70979    298.73111 
    4800    1.1550561   -178.70882    294.11222 
    4810    1.1547913   -602.26231    297.02254 
    4820    1.1546934   -776.49921    297.94195 
    4830    1.1548028   -323.52523    293.83505 
    4840     1.155019    106.45587    295.47415 
    4850    1.1552081    352.36015    295.73131 
    4860    1.1553119    237.63151    305.54337 
    4870    1.1553289    604.33342    305.47335 
    4880     1.155168    752.96224    306.30534 
    4890    1.1547583    1158.8677    296.10614 
    4900    1.1540168    963.14927    303.11897 
    4910    1.1529694    345.24898    304.32794 
    4920    1.1517667    -95.71249    296.43952 
    4930    1.1505769    -669.1188    298.86541 
    4940    1.1495453   -1082.1292    295.81765 
    4950    1.1488007   -1442.0266    291.11967 
    4960    1.1484708   -1545.4026    294.77288 
    4970     1.148581   -963.28902    288.19494 
    4980    1.1489905   -610.95985    291.97323 
    4990    1.1495778   -133.77351    290.56707 
    5000    1.1502399     -26.5559    297.67322 
Loop time of 98.344 on 4 procs for 5000 steps with 3000 atoms

Performance: 4.393 ns/day, 5.464 hours/ns, 50.842 timesteps/s
99.9% CPU use with 4 MPI tasks x 1 OpenMP threads

MPI task timing breakdown:
Section |  min time  |  avg time  |  max time  |%varavg| %total
---------------------------------------------------------------
Pair    | 70.679     | 73.264     | 74.611     |  17.8 | 74.50
Bond    | 0.0067878  | 0.0081777  | 0.010569   |   1.6 |  0.01
Kspace  | 8.0226     | 9.3588     | 11.959     |  50.1 |  9.52
Neigh   | 4.1878     | 4.1885     | 4.1894     |   0.0 |  4.26
Comm    | 2.1871     | 2.215      | 2.2803     |   2.6 |  2.25
Output  | 0.015433   | 0.017834   | 0.02433    |   2.8 |  0.02
Modify  | 8.8768     | 9.0174     | 9.0965     |   2.8 |  9.17
Other   |            | 0.2738     |            |       |  0.28

Nlocal:    750 ave 778 max 727 min
Histogram: 1 0 0 1 1 0 0 0 0 1
Nghost:    11533 ave 11687 max 11401 min
Histogram: 1 0 1 0 0 0 1 0 0 1
Neighs:    496608 ave 514630 max 476272 min
Histogram: 1 0 0 0 1 0 1 0 0 1

Total # of neighbors = 1986430
Ave neighs/atom = 662.143
Ave special neighs/atom = 2
Neighbor list builds = 182
Dangerous builds = 10
unfix stab_iso
unfix stab_constrain

reset_timestep 0
#fix iso all npt temp ${Text} ${Text} $(100.0*dt) iso ${Pext} ${Pext} $(1000.0*dt)
fix iso all nvt temp ${Text} ${Text} $(100.0*dt)
fix iso all nvt temp 298 ${Text} $(100.0*dt)
fix iso all nvt temp 298 298 $(100.0*dt)
fix iso all nvt temp 298 298 100
fix constrain all rattle 1.0e-5 100 0 b 1 a 1
  0 = # of size 2 clusters
  0 = # of size 3 clusters
  0 = # of size 4 clusters
  1000 = # of frozen angles
  find clusters CPU = 0.000419855 secs

thermo_style custom step density etotal press temp
thermo_modify flush yes
    # insures the output is dumped in the file and not buffered or something
thermo ${NdumpStats}
thermo 10
dump trj all atom ${NdumpFrames} wat.lammpstrj
dump trj all atom 1000 wat.lammpstrj

run ${Nrun}
run 500000
PPPM initialization ...
  using 12-bit tables for long-range coulomb (src/kspace.cpp:332)
  G vector (1/distance) = 0.260876
  grid = 24 24 24
  stencil order = 5
  estimated absolute RMS force accuracy = 0.00275625
  estimated relative force accuracy = 8.30035e-06
  using double precision FFTW3
  3d grid and FFT values/proc = 11191 3456
Per MPI rank memory allocation (min/avg/max) = 12.76 | 12.76 | 12.76 Mbytes
Step Density TotEng Press Temp 
       0    1.1502399   -21046.921   -188.73742    297.67322 
      10    1.1502399   -21048.504   -257.14213    299.70715 
      20    1.1502399   -21048.754   -14.362977    297.21664 
      30    1.1502399   -21048.905     244.9852    296.23323 
      40    1.1502399   -21048.228    216.93177    291.06369 
      50    1.1502399   -21047.578   -447.20431    298.91566 
      60    1.1502399   -21046.721   -781.13186    301.03699 
      70    1.1502399   -21045.402   -655.20192    292.10294 
      80    1.1502399   -21044.208   -756.97756     295.5195 
      90    1.1502399   -21042.393   -732.67572    296.38298 
     100    1.1502399   -21039.971   -669.96158    295.91523 
     110    1.1502399   -21036.855   -592.00481    291.42492 
     120    1.1502399   -21032.808   -775.09598    296.10407 
     130    1.1502399   -21027.666   -449.30298     295.4381 
     140    1.1502399   -21021.259   -38.179929    292.39525 
     150    1.1502399   -21013.841    146.74831    299.53523 
     160    1.1502399   -21004.859    279.99807    297.55718 
     170    1.1502399   -20994.827   -39.255594    298.44767 
     180    1.1502399   -20984.871   -340.83153    303.86896 
     190    1.1502399   -20974.867   -485.35181    308.18253 
     200    1.1502399   -20966.073   -416.46219    304.89591 
     210    1.1502399   -20959.015   -176.65409    308.24297 
     220    1.1502399   -20952.622    394.98992    304.13511 
     230    1.1502399   -20947.606    619.67426    299.49844 
     240    1.1502399   -20944.192   -150.74622    312.78957 
     250    1.1502399   -20940.886   -3.4353558    298.58881 
     260    1.1502399    -20939.24   -436.69259    311.21856 
     270    1.1502399   -20938.778    -684.3191    312.41732 
     280    1.1502399   -20939.743   -255.92655    302.51547 
     290    1.1502399   -20941.845   -110.75475    310.28232 
     300    1.1502399   -20944.964    37.709974    308.18416 
     310    1.1502399   -20949.057    279.89131    304.54704 
     320    1.1502399   -20953.919    384.19245    307.95792 
     330    1.1502399   -20959.674    54.767798    304.12894 
     340    1.1502399   -20965.619   -25.608058    301.72901 
     350    1.1502399   -20971.018   -83.149758    294.23156 
     360    1.1502399   -20975.968   -919.58945    302.84399 
     370    1.1502399   -20980.465   -1284.6122    301.18413 
     380    1.1502399   -20984.993   -1252.5806    298.98227 
     390    1.1502399   -20989.153   -1046.1616    297.38133 
     400    1.1502399   -20992.197   -1188.4917    298.19161 
     410    1.1502399   -20994.577   -1213.4986    296.19349 
     420    1.1502399   -20997.132   -1374.6173    305.70987 
     430    1.1502399   -20999.256   -820.95846    296.99924 
     440    1.1502399    -21001.38   -641.54454    299.17418 
     450    1.1502399   -21003.733   -515.45833    303.56328 
     460    1.1502399   -21005.654    -2.517238    297.79903 
     470    1.1502399   -21007.506   -134.25745    303.76974 
     480    1.1502399   -21010.024    47.092673    305.59934 
     490    1.1502399   -21013.066    177.01717    300.28057 
     500    1.1502399    -21016.26    302.53249    300.32532 
     510    1.1502399   -21018.744    239.65976    295.39575 
     520    1.1502399   -21020.809   -120.55705     294.1623 
     530    1.1502399   -21023.046   -714.97625    298.93093 
     540    1.1502399   -21024.751   -704.64979    296.89671 
     550    1.1502399   -21026.085   -634.95568    294.53863 
     560    1.1502399   -21027.106   -858.58121    295.23779 
     570    1.1502399   -21028.068   -1041.2792    300.62281 
     580    1.1502399   -21028.719   -993.94797    296.53876 
     590    1.1502399   -21029.369   -975.82638    296.23783 
     600    1.1502399   -21030.254   -1039.5014    296.19515 
     610    1.1502399   -21030.794   -709.41542    295.25113 
     620    1.1502399   -21030.429   -647.37983    294.93222 
     630    1.1502399   -21030.211   -1007.6682    300.02627 
     640    1.1502399   -21029.844   -939.71839    294.08679 
     650    1.1502399   -21029.461   -725.30655    296.77856 
     660    1.1502399   -21028.436   -300.04717    289.47401 
     670    1.1502399   -21026.825   -528.82549    298.04867 
     680    1.1502399   -21024.716   -595.76058    302.43069 
     690    1.1502399   -21022.623    -183.5161    301.05639 
     700    1.1502399   -21020.472    248.06159    296.79227 
     710    1.1502399   -21018.294    126.48748    297.19483 
     720    1.1502399   -21016.014   -211.91078    303.13547 
     730    1.1502399   -21013.301   -368.39851    301.85851 
     740    1.1502399     -21010.4   -664.05235    302.44057 
     750    1.1502399   -21007.646   -664.15334    299.26576 
     760    1.1502399   -21005.098   -643.88271    301.38289 
     770    1.1502399   -21002.471   -417.47742    306.26933 
     780    1.1502399   -20999.466    239.19671     294.2015 
     790    1.1502399   -20996.486    205.48938    302.20202 
     800    1.1502399   -20992.974    70.615886    299.62584 
     810    1.1502399   -20989.605    145.88255    300.88474 
     820    1.1502399   -20986.237    460.09332    300.72905 
     830    1.1502399   -20982.167     600.1326    292.76459 
     840    1.1502399   -20978.046    217.38481    304.66534 
     850    1.1502399   -20973.429    503.06306    299.49012 
     860    1.1502399   -20968.975    540.78159    300.89351 
     870    1.1502399   -20964.919    490.43175    304.17842 
     880    1.1502399   -20961.354    422.24232    305.71918 
     890    1.1502399   -20957.744    625.39966    299.73408 
     900    1.1502399   -20954.809    612.07619     300.3165 
     910    1.1502399   -20952.431    110.89209    311.91777 
     920    1.1502399   -20950.709    339.08146    306.12868 
     930    1.1502399   -20950.468    474.26575     304.6813 
     940    1.1502399   -20950.919    298.52465    309.35401 
     950    1.1502399   -20952.466    320.28308    307.55113 
     960    1.1502399   -20955.483    451.80065     300.2718 
     970    1.1502399   -20959.954   -3.8100168    313.87964 
     980    1.1502399   -20965.503    382.80203    301.95383 
     990    1.1502399   -20972.701    461.79569    307.07015 
    1000    1.1502399   -20980.536    554.71998    300.77739 
    1010    1.1502399   -20990.117    478.79158    306.91661 
    1020    1.1502399   -20999.532     575.1302    302.56024 
    1030    1.1502399   -21009.433    39.957498    303.45077 
    1040    1.1502399   -21019.823   -353.36736    306.74744 
    1050    1.1502399   -21029.759   -328.93474    303.56625 
    1060    1.1502399   -21038.434    -253.1037    291.96194 
    1070    1.1502399   -21045.822    -922.4847    295.17508 
    1080    1.1502399   -21051.376   -1133.8782      295.408 
    1090    1.1502399   -21055.815   -647.08396    292.66127 
    1100    1.1502399    -21058.94   -327.90268    289.18843 
    1110    1.1502399   -21060.756   -207.71361    290.64472 
    1120    1.1502399   -21061.612    55.504798    290.16522 
    1130    1.1502399   -21061.293    523.83921    286.35826 
    1140    1.1502399   -21059.968     281.2556    290.42587 
    1150    1.1502399   -21057.932   -82.365558    294.29053 
    1160    1.1502399   -21055.139   -167.13834    290.04274 
    1170    1.1502399   -21051.972   -576.56956    296.73802 
    1180    1.1502399   -21048.163   -813.53295    294.33189 
    1190    1.1502399   -21044.708   -1049.8628    301.15139 
    1200    1.1502399   -21041.272   -644.67618    298.76945 
    1210    1.1502399   -21037.573   -126.02317    295.30522 
    1220    1.1502399   -21034.249   -229.81843    303.07489 
    1230    1.1502399   -21031.049    94.630879    299.14543 
    1240    1.1502399   -21028.483    503.31261    301.88736 
    1250    1.1502399   -21026.122    286.88436    305.11169 
    1260    1.1502399   -21024.386   -125.02424    305.54793 
    1270    1.1502399   -21023.877   -108.24413    306.08469 
    1280    1.1502399   -21023.999   -107.39177    302.86992 
    1290    1.1502399   -21024.656   -197.37585    304.05078 
    1300    1.1502399   -21026.173    77.938959    297.03236 
    1310    1.1502399   -21028.174    170.93939    300.94088 
    1320    1.1502399   -21029.792    471.34822    293.27553 
    1330    1.1502399   -21031.707    68.241635    298.65475 
    1340    1.1502399   -21033.653   -242.03304    302.28758 
    1350    1.1502399   -21036.121   -3.8186132    296.52961 
    1360    1.1502399   -21039.011    166.30688    296.79303 
    1370    1.1502399   -21042.569    461.86103    299.29519 
    1380    1.1502399   -21046.404    815.35882    296.69904 
    1390    1.1502399   -21050.489    806.86721    299.08704 
    1400    1.1502399   -21055.705    585.73809    298.60936 
    1410    1.1502399   -21062.485     233.4967    304.43688 
    1420    1.1502399   -21070.478    626.25531    297.95071 
    1430    1.1502399   -21079.144    859.24115    292.03952 
    1440    1.1502399   -21087.929    502.90343    293.71175 
    1450    1.1502399   -21096.396    331.42426    287.76583 
    1460    1.1502399   -21104.704    -74.81866    294.56385 
    1470    1.1502399   -21112.048    211.91869    290.01892 
    1480    1.1502399   -21118.461    271.90518    295.22462 
    1490    1.1502399   -21124.147    304.28057    292.06953 
    1500    1.1502399   -21129.494    459.68175    293.93108 
    1510    1.1502399   -21133.981    342.62092    295.12412 
    1520    1.1502399   -21138.182   -39.059328    298.75996 
    1530    1.1502399   -21142.115   -141.79843    298.39402 
    1540    1.1502399   -21146.219   -253.02954    298.80092 
    1550    1.1502399   -21149.558    54.229473    288.34823 
    1560    1.1502399    -21152.64   -128.97297     294.8831 
    1570    1.1502399   -21154.378   -140.05482     286.8305 
    1580    1.1502399   -21155.441   -480.07182    292.41168 
    1590    1.1502399    -21155.63   -661.17201    292.21147 
    1600    1.1502399   -21155.113   -794.67696    294.77839 
    1610    1.1502399   -21153.734   -514.18471    289.17099 
    1620    1.1502399   -21151.718    -417.0228    285.32612 
    1630    1.1502399   -21148.476    -619.8626    289.57702 
    1640    1.1502399   -21143.577   -827.14406    289.40455 
    1650    1.1502399   -21137.165    -796.6879    281.89668 
    1660    1.1502399   -21129.565   -1008.5293    293.76945 
    1670    1.1502399     -21120.4   -733.62666    290.16178 
    1680    1.1502399   -21110.862   -959.87645    298.33076 
    1690    1.1502399   -21101.249   -522.43337    293.51783 
    1700    1.1502399   -21092.064   -229.86198    294.57181 
    1710    1.1502399   -21083.767   -408.76203     296.2835 
    1720    1.1502399   -21076.647   -507.36526    297.11029 
    1730    1.1502399    -21071.18   -732.27749    303.59754 
    1740    1.1502399   -21067.064   -639.53695    301.12411 
    1750    1.1502399   -21064.861   -390.73843    303.79392 
    1760    1.1502399   -21062.958    189.87846    291.15292 
    1770    1.1502399   -21061.503   -37.833456    299.32542 
    1780    1.1502399   -21060.119    85.386808    300.09604 
    1790    1.1502399   -21059.447    257.73029    303.59737 
    1800    1.1502399   -21059.166    508.17461    302.18786 
    1810    1.1502399   -21059.475     713.8323    302.82295 
    1820    1.1502399   -21060.068     954.4589    297.18958 
    1830    1.1502399   -21061.387    928.84743    304.28462 
    1840    1.1502399   -21062.714    962.15384    302.11318 
    1850    1.1502399   -21064.714    1070.7572    301.49028 
    1860    1.1502399   -21067.043    1103.3162    298.62113 
    1870    1.1502399   -21069.585    604.16695    300.10421 
    1880    1.1502399   -21072.173    372.14222    301.16764 
    1890    1.1502399   -21075.279    182.72294     304.7778 
    1900    1.1502399   -21079.308    316.69632    302.72478 
    1910    1.1502399   -21083.548    852.56399    294.47353 
    1920    1.1502399   -21087.817    525.07235    297.11461 
    1930    1.1502399   -21091.708    20.795533    296.47088 
    1940    1.1502399   -21096.151   -256.77655    300.48199 
    1950    1.1502399   -21100.461    27.328386    294.61656 
    1960    1.1502399   -21104.421   -146.35163    293.23106 
    1970    1.1502399   -21107.557   -320.19785    289.01907 
    1980    1.1502399   -21110.771   -586.50097    296.39776 
    1990    1.1502399   -21113.291   -284.11824    295.73128 
    2000    1.1502399   -21114.901   -106.19518    293.09853 
    2010    1.1502399   -21117.187    169.58564     297.9851 
    2020    1.1502399   -21119.111    697.43079    293.33577 
    2030    1.1502399   -21120.772    805.69932    296.17815 
    2040    1.1502399   -21122.228    440.31421    298.12128 
    2050    1.1502399   -21122.966    256.79089    290.96505 
    2060    1.1502399   -21124.385   -51.973761    300.16745 
    2070    1.1502399   -21125.252   -2.3221005    294.35445 
    2080    1.1502399   -21126.318   -204.22738    300.55161 
    2090    1.1502399   -21127.088    343.69096    289.76928 
    2100    1.1502399   -21127.978    441.65296    297.16299 
    2110    1.1502399   -21127.829     719.9964    287.68184 
    2120    1.1502399   -21127.668    389.94979    299.04304 
    2130    1.1502399   -21126.582    293.24901    295.89941 
    2140    1.1502399   -21124.815     388.2896    290.58734 
    2150    1.1502399   -21122.716    432.38828     294.8473 
    2160    1.1502399   -21119.585    249.68298    298.08277 
    2170    1.1502399   -21115.165    225.85403    293.31837 
    2180    1.1502399   -21110.117    261.59839    299.17359 
    2190    1.1502399   -21104.237    730.07182    293.05351 
    2200    1.1502399   -21097.818    729.34473    295.94936 
    2210    1.1502399   -21090.005    486.79785     298.8312 
    2220    1.1502399   -21081.733    696.77441    297.64415 
    2230    1.1502399   -21073.335    896.43491      298.997 
    2240    1.1502399   -21065.315    723.41086    302.03106 
    2250    1.1502399   -21057.796    594.85216    299.33824 
    2260    1.1502399   -21050.384    540.33251    297.07957 
    2270    1.1502399   -21043.347    214.34618     302.3754 
    2280    1.1502399   -21036.894   -141.91821    302.74754 
    2290    1.1502399   -21032.042   -105.15619    306.40079 
    2300    1.1502399    -21027.68    712.97542     296.3525 
    2310    1.1502399   -21023.891    579.99671    302.34709 
    2320    1.1502399   -21020.608    415.89779    307.21318 
    2330    1.1502399   -21018.561    473.91712    307.17324 
    2340    1.1502399   -21017.444    730.04796    303.15071 
    2350    1.1502399    -21017.28    661.85819    301.72194 
    2360    1.1502399   -21017.987    426.25924    305.10016 
    2370    1.1502399   -21018.321    609.49804    294.26275 
    2380    1.1502399   -21019.165    457.63555    302.60816 
    2390    1.1502399   -21020.598    346.89729    303.35297 
    2400    1.1502399    -21022.37    111.15915    305.32107 
    2410    1.1502399   -21026.033   -13.797596    315.45753 
    2420    1.1502399    -21030.88     588.5461    300.52541 
    2430    1.1502399   -21036.731    496.20594    303.82533 
    2440    1.1502399   -21043.357    277.01995    307.43911 
    2450    1.1502399   -21051.202    54.551382    304.57198 
    2460    1.1502399   -21060.814    57.245509     305.1222 
    2470    1.1502399   -21070.365     435.3377    299.81002 
    2480    1.1502399   -21078.988    599.74593     291.2147 
    2490    1.1502399   -21087.191    326.33032    297.63106 
    2500    1.1502399   -21094.003    95.961589    300.24831 
    2510    1.1502399   -21099.945   -116.39181    297.49211 
    2520    1.1502399   -21105.335   -194.52841    300.69562 
    2530    1.1502399   -21109.768    249.40988    293.34478 
    2540    1.1502399   -21113.299    72.793496      295.044 
    2550    1.1502399   -21115.214   -195.37408    295.05148 
    2560    1.1502399   -21116.654   -342.75421    292.78303 
    2570    1.1502399    -21118.12   -546.25049    299.48369 
    2580    1.1502399   -21118.747   -194.46078    296.28867 
    2590    1.1502399   -21119.195    443.18793    294.78063 
    2600    1.1502399   -21119.083      691.964     292.5484 
    2610    1.1502399   -21118.598    748.16892    293.09457 
    2620    1.1502399   -21117.651    749.44172    293.72771 
    2630    1.1502399   -21116.123    822.38785    293.26609 
    2640    1.1502399   -21114.321    714.96706    295.47051 
    2650    1.1502399   -21112.174    470.85397    299.77274 
    2660    1.1502399   -21110.092    476.63025     299.3382 
    2670    1.1502399   -21108.235    364.09265    297.88568 
    2680    1.1502399   -21106.197    708.37632    292.22071 
    2690    1.1502399   -21104.239    573.38305    296.95406 
    2700    1.1502399   -21101.824    200.11123    299.66069 
    2710    1.1502399   -21099.449   -224.82147    301.74751 
    2720    1.1502399   -21097.558     -385.406    303.84001 
    2730    1.1502399   -21095.796     30.57036    295.80668 
    2740    1.1502399   -21094.627    390.85364     300.6249 
    2750    1.1502399   -21093.211     898.0521     298.6362 
    2760    1.1502399   -21091.607    774.55308    299.17741 
    2770    1.1502399   -21090.703    456.37091    304.95806 
    2780    1.1502399   -21089.968    450.18692    302.51153 
    2790    1.1502399   -21089.711    455.84038    296.79386 
    2800    1.1502399   -21089.622    352.77237    293.83401 
    2810    1.1502399   -21088.887    303.95435    295.60108 
    2820    1.1502399   -21087.456      133.175    296.25317 
    2830    1.1502399   -21086.153    198.25679    304.60475 
    2840    1.1502399   -21084.644    769.37894    296.41355 
    2850    1.1502399   -21083.395    574.68472    302.09607 
    2860    1.1502399   -21081.715     823.3843    295.24023 
    2870    1.1502399   -21080.491    566.34372    309.98704 
    2880    1.1502399   -21078.624    1050.7546    291.20385 
    2890    1.1502399   -21077.841    505.31312    311.87894 
    2900    1.1502399   -21077.155    475.11821    305.78596 
    2910    1.1502399   -21078.253     307.3345    309.24722 
    2920    1.1502399   -21080.129    542.31915    303.68823 
    2930    1.1502399   -21082.945    668.52984    295.77182 
    2940    1.1502399   -21086.547    1023.8086    294.60465 
    2950    1.1502399   -21090.126    869.99049    301.94538 
    2960    1.1502399     -21093.8    928.59512    294.55509 
    2970    1.1502399   -21098.281    981.10138    301.72463 
    2980    1.1502399   -21102.708    894.90083    298.93436 
    2990    1.1502399   -21108.108    352.31753    300.61098 
    3000    1.1502399   -21114.138    331.35655    298.25679 
    3010    1.1502399   -21120.081     540.5165    292.56425 
    3020    1.1502399   -21125.365    318.27466    292.86906 
    3030    1.1502399    -21130.29    150.81177    294.31561 
    3040    1.1502399   -21134.944    158.67983    294.94725 
    3050    1.1502399   -21138.953     40.33586     295.9937 
    3060    1.1502399   -21142.909    160.46228    296.32254 
    3070    1.1502399   -21146.891    504.81453     297.1069 
    3080    1.1502399    -21150.61     932.6855    291.79421 
    3090    1.1502399   -21154.519    721.84472      301.816 
    3100    1.1502399    -21158.13    973.90344    300.39024 
    3110    1.1502399   -21162.413    1298.8825    300.98543 
    3120    1.1502399   -21166.691    1619.9467    292.92328 
    3130    1.1502399   -21171.117    1241.4665     296.8128 
    3140    1.1502399   -21175.158    979.47716    291.36652 
    3150    1.1502399   -21178.998    359.50082    300.78665 
    3160    1.1502399   -21182.054     424.5732    291.80402 
    3170    1.1502399   -21185.095    233.44177    293.76714 
    3180    1.1502399   -21187.952   -38.566633     295.0829 
    3190    1.1502399   -21191.001   -168.89906    298.84571 
    3200    1.1502399   -21193.144    201.04323    284.22271 
    3210    1.1502399   -21195.053   -16.299184    294.75952 
    3220    1.1502399   -21195.638    4.2190957     289.7318 
    3230    1.1502399   -21196.356   -285.84681    296.26255 
    3240    1.1502399   -21196.303   -87.395499    292.26365 
    3250    1.1502399   -21195.495    132.19438    294.62293 
    3260    1.1502399   -21193.644    529.24132     287.4185 
    3270    1.1502399   -21190.856    203.20626    293.08617 
    3280    1.1502399   -21187.257    169.83908    299.14185 
    3290    1.1502399   -21182.186    159.85678    289.65656 
    3300    1.1502399   -21176.135   -376.31046    301.70831 
    3310    1.1502399   -21168.712   -73.789956    298.21057 
    3320    1.1502399   -21160.321    552.34173    291.87103 
    3330    1.1502399   -21151.229    587.39245    298.93965 
    3340    1.1502399   -21140.693    485.20718     298.9499 
    3350    1.1502399   -21130.323    182.35263    303.54384 
    3360    1.1502399   -21120.633    531.17348    302.21443 
    3370    1.1502399   -21111.391    912.92985    295.79695 
    3380    1.1502399   -21103.728    658.56145    303.46402 
    3390    1.1502399   -21096.914    602.40687    306.21201 
    3400    1.1502399   -21091.166    910.05822    303.08435 
    3410    1.1502399   -21086.991    914.32831    303.25293 
    3420    1.1502399   -21083.722     683.8659    304.49938 
    3430    1.1502399   -21081.721    848.73537     302.1711 
    3440    1.1502399    -21080.58    744.36741    305.20437 
    3450    1.1502399   -21079.335    726.91687     298.0992 
    3460    1.1502399   -21079.187    411.10589     303.1168 
    3470    1.1502399   -21079.666    406.48491    302.89332 
    3480    1.1502399   -21080.917     563.1631    306.96392 
    3490    1.1502399   -21082.136    879.00904    300.44511 
    3500    1.1502399   -21084.092    834.51926    303.64245 
    3510    1.1502399   -21086.966    999.08223    303.45195 
    3520    1.1502399   -21090.582    1069.5556    308.65231 
    3530    1.1502399   -21094.513    1475.2501    297.78285 
    3540    1.1502399    -21099.22    1140.0726    301.73236 
    3550    1.1502399   -21104.072     1003.439    301.50364 
    3560    1.1502399   -21109.042     1200.078    297.46474 
    3570    1.1502399   -21113.668    991.56374    296.62811 
    3580    1.1502399   -21118.288    476.90183    297.91127 
    3590    1.1502399   -21123.325    228.36574    307.45343 
    3600    1.1502399   -21128.235    743.43265    294.33906 
    3610    1.1502399   -21133.428    527.32105    300.32731 
    3620    1.1502399   -21138.196    370.95093    300.45574 
    3630    1.1502399    -21143.75    420.22637    306.53975 
    3640    1.1502399     -21148.9    680.11868    295.19418 
    3650    1.1502399   -21154.493    498.23352    303.02608 
    3660    1.1502399   -21159.203    666.82785    294.68073 
    3670    1.1502399   -21162.851    526.15832    293.80175 
    3680    1.1502399   -21166.066     194.6822    296.01018 
    3690    1.1502399   -21169.078    312.88716    298.12373 
    3700    1.1502399   -21170.776    553.05649    287.63263 
    3710    1.1502399   -21172.051    147.74822     295.9687 
    3720    1.1502399   -21172.158    80.733576    291.79764 
    3730    1.1502399   -21171.589    205.56192    290.57622 
    3740    1.1502399   -21170.704    69.148592    298.00732 
    3750    1.1502399   -21169.539   -7.4484541    297.40822 
    3760    1.1502399   -21168.752   -57.236792    298.56645 
    3770    1.1502399   -21168.192    42.290649    295.77323 
    3780    1.1502399   -21167.364    192.29517    296.50959 
    3790    1.1502399   -21166.012    264.81658    293.71456 
    3800    1.1502399   -21164.909    31.803815    296.41936 
    3810    1.1502399   -21163.788   -252.01534    301.50156 
    3820    1.1502399   -21162.581    188.81133    298.32727 
    3830    1.1502399   -21162.222    291.62207    296.88391 
    3840    1.1502399   -21161.843   -22.549262    300.60565 
    3850    1.1502399   -21161.017   -8.8139987     298.6359 
    3860    1.1502399   -21160.517    242.23812    295.51594 
    3870    1.1502399   -21160.215    219.96387    298.32565 
    3880    1.1502399   -21159.779     148.7596     296.9173 
    3890    1.1502399   -21159.342    110.02095    306.53527 
    3900    1.1502399   -21158.707    697.43674    297.28496 
    3910    1.1502399    -21159.37    1108.5703    301.08294 
    3920    1.1502399   -21160.008    1760.0596    295.81204 
    3930    1.1502399   -21160.837    1598.8613    305.18684 
    3940    1.1502399   -21162.083    1589.2378    307.59622 
    3950    1.1502399   -21164.116    1664.8263    300.91995 
    3960    1.1502399   -21167.115    1510.8923    300.41384 
    3970    1.1502399    -21170.96    1326.2659    299.54386 
    3980    1.1502399   -21175.001    882.17458    304.12904 
    3990    1.1502399   -21179.486     1105.171     294.8932 
    4000    1.1502399   -21184.991    1055.8916    293.17923 
    4010    1.1502399   -21190.153     986.2856    289.21746 
    4020    1.1502399   -21194.991    419.22777    295.40222 
    4030    1.1502399   -21199.385    176.93577    290.56153 
    4040    1.1502399   -21203.966    83.613468    294.08254 
    4050    1.1502399   -21208.541    216.95595     292.8526 
    4060    1.1502399   -21213.557    193.11389     297.9959 
    4070    1.1502399   -21218.638    385.43995    295.52242 
    4080    1.1502399   -21224.939    857.96413    298.66817 
    4090    1.1502399   -21231.049    1241.3744    284.36534 
    4100    1.1502399   -21237.773    590.48231    300.25583 
    4110    1.1502399   -21244.863    375.70256    296.79491 
    4120    1.1502399   -21252.862    271.26867    295.46368 
    4130    1.1502399   -21261.368    540.63462    294.54754 
    4140    1.1502399   -21269.528     558.5051    286.72504 
    4150    1.1502399   -21277.342    240.81986    291.37175 
    4160    1.1502399   -21284.417   -124.89445    289.16085 
    4170    1.1502399   -21290.343   -426.50066    286.33424 
    4180    1.1502399   -21294.981   -386.89589    284.37261 
    4190    1.1502399   -21298.441   -621.28882      285.826 
    4200    1.1502399   -21300.472   -680.15927    288.68438 
    4210    1.1502399   -21301.052   -440.39214    287.62959 
    4220    1.1502399   -21300.548   -461.68168    286.77608 
    4230    1.1502399   -21299.334   -409.59444     292.0102 
    4240    1.1502399   -21296.588    290.31024    283.13497 
    4250    1.1502399   -21291.841    250.22781    282.28859 
    4260    1.1502399   -21285.351    -235.8274    290.93744 
    4270    1.1502399   -21277.303   -183.05037    288.23454 
    4280    1.1502399   -21267.489   -53.852257    284.57814 
    4290    1.1502399    -21256.09    -486.1688    294.02633 
    4300    1.1502399    -21244.21   -11.994796     289.2957 
    4310    1.1502399   -21233.045    102.79107    295.60017 
    4320    1.1502399   -21222.097     558.8087    290.09812 
    4330    1.1502399   -21213.659    564.93816    293.59341 
    4340    1.1502399   -21206.824    196.27119    302.97404 
    4350    1.1502399   -21201.472    126.39327     297.3666 
    4360    1.1502399   -21197.843    129.10765     298.3332 
    4370    1.1502399    -21194.96    56.055047    296.27636 
    4380    1.1502399     -21192.7   -389.03943    297.42813 
    4390    1.1502399   -21190.341   -376.60614    294.84956 
    4400    1.1502399   -21187.779   -8.9332935    289.26118 
    4410    1.1502399    -21184.89   -89.984619    295.36963 
    4420    1.1502399   -21181.523    197.85584    294.94773 
    4430    1.1502399   -21178.116    487.62264    294.53589 
    4440    1.1502399   -21174.469    379.67006    296.89115 
    4450    1.1502399   -21170.405    504.71013    298.12619 
    4460    1.1502399    -21166.52    476.15878     301.6764 
    4470    1.1502399   -21163.502    363.13542    302.19767 
    4480    1.1502399   -21160.593    433.55003    299.26953 
    4490    1.1502399   -21157.712    412.82442      296.409 
    4500    1.1502399   -21154.742    15.370341    299.65943 
    4510    1.1502399   -21151.891    205.11512    298.18576 
    4520    1.1502399   -21149.644     550.8551    303.19305 
    4530    1.1502399   -21147.081    1028.0324    301.48902 
    4540    1.1502399   -21145.092    1453.1378     296.1737 
    4550    1.1502399   -21143.872    1400.0926    307.73357 
    4560    1.1502399   -21142.534    1389.0513    298.67339 
    4570    1.1502399   -21141.923    1035.9863    310.02499 
    4580    1.1502399   -21141.849    1411.2607    298.69886 
    4590    1.1502399   -21142.901    1272.4198     299.9489 
    4600    1.1502399   -21143.584    1169.6628    296.32349 
    4610    1.1502399   -21144.737    693.34452    304.10866 
    4620    1.1502399   -21146.036    600.11714    299.19126 
    4630    1.1502399   -21147.497     565.6686    297.00415 
    4640    1.1502399   -21149.751    468.00805    298.18242 
    4650    1.1502399   -21152.179    173.45534     298.4814 
    4660    1.1502399   -21154.454   -67.564351    303.52161 
    4670    1.1502399   -21157.136    329.19755    294.17224 
    4680    1.1502399   -21160.482     470.8727    294.59385 
    4690    1.1502399   -21163.596     540.9494    299.02043 
    4700    1.1502399   -21166.452    786.22686    295.24424 
    4710    1.1502399   -21169.883    900.52866    295.77139 
    4720    1.1502399   -21173.694    1000.6727    298.30595 
    4730    1.1502399   -21177.591    1244.6487    296.92149 
    4740    1.1502399   -21181.563    1123.3291    295.64629 
    4750    1.1502399   -21185.804    1140.0705    293.96916 
    4760    1.1502399   -21190.332    1390.0956     296.5397 
    4770    1.1502399   -21194.535    1382.0934    290.39315 
    4780    1.1502399   -21199.262    752.46994    301.87969 
    4790    1.1502399   -21203.665    771.22702    293.99407 
    4800    1.1502399   -21208.305    414.22463    297.55264 
    4810    1.1502399   -21213.211    533.43765    291.56058 
    4820    1.1502399   -21218.367    180.46457    295.97573 
    4830    1.1502399   -21222.685     114.1939    290.53955 
    4840    1.1502399   -21227.081    140.74321    292.99571 
    4850    1.1502399   -21230.957    248.59456    288.16115 
    4860    1.1502399   -21234.216     362.6453    291.29685 
    4870    1.1502399   -21236.543    499.26841    292.34803 
    4880    1.1502399   -21238.389    699.70258    290.04704 
    4890    1.1502399   -21239.882    695.83955     296.2494 
    4900    1.1502399   -21241.054    884.35813    295.37411 
    4910    1.1502399    -21242.17    1171.9224    295.25358 
    4920    1.1502399   -21242.744    1296.4876    295.23389 
    4930    1.1502399   -21243.605    715.34582    304.54206 
    4940    1.1502399   -21244.687    948.23433     294.8579 
    4950    1.1502399   -21246.139    1159.4143    292.21912 
    4960    1.1502399   -21246.776     840.0775     291.8495 
    4970    1.1502399   -21246.853    12.864607    300.11334 
    4980    1.1502399   -21246.873    47.200871    294.76312 
    4990    1.1502399    -21247.02    311.52167    295.28973 
    5000    1.1502399   -21246.493    401.64937    294.19048 
    5010    1.1502399   -21245.507    139.98453     295.9377 
    5020    1.1502399   -21244.081    137.68848    296.74089 
    5030    1.1502399     -21241.7    550.81556    284.24512 
    5040    1.1502399   -21238.506    195.43085    294.73959 
    5050    1.1502399   -21233.588    193.40868     295.2824 
    5060    1.1502399   -21228.049    482.13308    295.10405 
    5070    1.1502399   -21222.094    757.02173    298.92457 
    5080    1.1502399   -21215.164    904.64747    299.42799 
    5090    1.1502399   -21208.683    741.32047    305.77477 
    5100    1.1502399    -21202.47    844.95613    303.42432 
    5110    1.1502399   -21196.668    1221.5864     300.8238 
    5120    1.1502399   -21191.614    1495.1549    298.95235 
    5130    1.1502399   -21186.401    1364.3237    299.94592 
    5140    1.1502399    -21181.11    1513.9735    296.85384 
    5150    1.1502399   -21176.228    1802.5268    298.84343 
    5160    1.1502399   -21171.401    1773.0445    298.32657 
    5170    1.1502399   -21166.346    1631.9105    300.36624 
    5180    1.1502399   -21161.581    1641.6805    299.48705 
    5190    1.1502399   -21156.896    1483.3998    300.63027 
    5200    1.1502399   -21152.456     1231.207    303.36757 
    5210    1.1502399    -21148.81    1143.6262    302.19874 
    5220    1.1502399   -21146.005    828.22079    308.75223 
    5230    1.1502399   -21143.707     1283.841    302.40729 
    5240    1.1502399   -21142.001     1412.157    300.28641 
    5250    1.1502399   -21141.136    1235.0504    301.08823 
    5260    1.1502399   -21140.555    1206.0829    299.57851 
    5270    1.1502399   -21139.785    1303.6362    297.64405 
    5280    1.1502399   -21138.859    1150.0474    297.73057 
    5290    1.1502399   -21137.807    1137.4197    294.12009 
    5300    1.1502399   -21136.937    1151.9681    301.18599 
    5310    1.1502399   -21135.605    1230.0613    298.78356 
    5320    1.1502399   -21134.509    1032.2986    304.74072 
    5330    1.1502399   -21133.534    1302.3625    298.49256 
    5340    1.1502399   -21133.336    1173.7346    303.79031 
    5350    1.1502399    -21133.76    1367.7125    306.93416 
    5360    1.1502399   -21134.627    1778.9461    297.31005 
    5370    1.1502399   -21136.412    1496.4206     304.5583 
    5380    1.1502399   -21138.639    1209.9017    299.98326 
    5390    1.1502399   -21142.246    697.94164    303.59405 
    5400    1.1502399   -21147.589    545.21287    304.99062 
    5410    1.1502399   -21153.705    338.90426    298.81982 
    5420    1.1502399   -21161.946    242.46826    303.46157 
    5430    1.1502399   -21171.001    605.17842    296.73248 
    5440    1.1502399   -21180.424    707.90971    298.47334 
    5450    1.1502399   -21190.267    768.15997    296.84854 
    5460    1.1502399   -21199.178    655.97196    291.15482 
    5470    1.1502399   -21207.996    11.169369    304.26069 
    5480    1.1502399   -21215.893     281.5176    291.52937 
    5490    1.1502399   -21223.168     268.7266      297.044 
    5500    1.1502399   -21229.775    537.05268    300.43127 
    5510    1.1502399   -21235.595    899.12622    295.59895 
    5520    1.1502399   -21240.666    1304.1373     295.2218 
    5530    1.1502399   -21245.205    1575.6377    292.35119 
    5540    1.1502399   -21249.853    1077.2682    306.07045 
    5550    1.1502399   -21253.373    1190.6411    294.16179 
    5560    1.1502399   -21256.981    1262.6794    295.36012 
    5570    1.1502399   -21260.337    1295.0703    294.08508 
    5580    1.1502399   -21262.875    1558.3582    290.41206 
    5590    1.1502399   -21264.444    1437.3066      294.671 
    5600    1.1502399   -21265.637    1326.5603    298.04394 
    5610    1.1502399   -21266.303    1711.9441    286.08262 
    5620    1.1502399   -21266.708     1261.194    297.16613 
    5630    1.1502399   -21265.672    1633.4768    283.83269 
    5640    1.1502399   -21264.179    1012.0787    294.52331 
    5650    1.1502399    -21261.13     874.4643    288.35519 
    5660    1.1502399   -21258.056    583.30925    296.77018 
    5670    1.1502399   -21253.825    685.82158    294.37834 
    5680    1.1502399    -21249.03    611.39451    295.07311 
    5690    1.1502399   -21244.078    521.48168    296.50462 
    5700    1.1502399    -21238.34    782.71296    293.91161 
    5710    1.1502399   -21231.971    750.51162    292.08523 
    5720    1.1502399   -21225.252    237.60036    300.10125 
    5730    1.1502399   -21217.982    280.64266    293.31352 
    5740    1.1502399   -21210.794    -26.32235    301.17738 
    5750    1.1502399   -21203.408   -9.4298749     297.2879 
    5760    1.1502399   -21196.743    17.718687    301.03814 
    5770    1.1502399   -21190.479    287.81932    300.51609 
    5780    1.1502399   -21185.174    621.23494    299.35112 
    5790    1.1502399   -21180.052    879.56892     299.4441 
    5800    1.1502399   -21175.249    1090.3187    295.00682 
    5810    1.1502399   -21171.941    705.94925    310.29415 
    5820    1.1502399   -21168.787    1066.4838    296.01144 
    5830    1.1502399   -21166.994    717.53602    304.33399 
    5840    1.1502399   -21165.249    686.21831    300.07324 
    5850    1.1502399   -21164.052    638.92343    296.96211 
    5860    1.1502399    -21163.64    755.78158     302.8948 
    5870    1.1502399   -21163.052    1155.8343     296.1829 
    5880    1.1502399   -21162.662    1121.4242    297.29935 
    5890    1.1502399   -21162.544    843.22699    305.58613 
    5900    1.1502399   -21162.516    1313.2278    298.85851 
    5910    1.1502399   -21163.191    1275.9465    300.74757 
    5920    1.1502399   -21164.164    893.15042    305.93346 
    5930    1.1502399   -21165.143    828.89644    296.83015 
    5940    1.1502399   -21166.668    497.43515    302.08685 
    5950    1.1502399   -21167.705     647.4388    293.21074 
    5960    1.1502399   -21169.095    590.97155    301.20979 
    5970    1.1502399   -21169.749    782.98119    293.94858 
    5980    1.1502399   -21170.927    453.20468    306.01054 
    5990    1.1502399   -21171.845    1187.0737    297.60438 
    6000    1.1502399   -21173.216    1755.9781    294.27906 
    6010    1.1502399   -21174.559    1556.7809    301.37882 
    6020    1.1502399   -21175.289    1623.8512    299.28031 
    6030    1.1502399   -21176.537    1569.6753    298.24751 
    6040    1.1502399   -21177.943    1461.0503    298.55845 
    6050    1.1502399   -21179.211     1567.812    297.76787 
    6060    1.1502399    -21180.74    1227.2077    307.47598 
    6070    1.1502399   -21182.268    1390.3941    299.57733 
    6080    1.1502399   -21185.264    1282.0464    305.61737 
    6090    1.1502399   -21188.874    1324.4625    303.66785 
    6100    1.1502399   -21192.479    1222.4196    297.97034 
    6110    1.1502399   -21196.074    1219.2746    289.85301 
    6120    1.1502399   -21199.228     736.4059    290.90624 
    6130    1.1502399   -21201.985    35.410308    297.75586 
    6140    1.1502399   -21204.229   -152.78527    299.79381 
    6150    1.1502399   -21207.003    -113.6427    302.25732 
    6160    1.1502399   -21210.045    223.51882    294.04329 
    6170    1.1502399    -21213.96    356.73003    304.78506 
    6180    1.1502399   -21217.408    1050.2753    288.99396 
    6190    1.1502399   -21221.347    833.52303     300.0958 
    6200    1.1502399    -21225.25    1128.9077    297.80144 
    6210    1.1502399   -21230.513    1061.5985     303.6923 
    6220    1.1502399   -21236.786     1137.716    298.55903 
    6230    1.1502399   -21244.509     867.4965     300.0339 
    6240    1.1502399   -21253.402      988.386    291.12724 
    6250    1.1502399   -21262.993    1003.3942    285.43536 
    6260    1.1502399   -21272.666    612.58001    290.67638 
    6270    1.1502399   -21281.837    546.84985    282.45312 
    6280    1.1502399   -21291.133    179.04121    295.25657 
    6290    1.1502399   -21299.395   0.77340403    293.56653 
    6300    1.1502399   -21307.163    -106.0139    290.12107 
    6310    1.1502399   -21314.456    8.4023774    288.78755 
    6320    1.1502399   -21320.668    143.56093    285.31521 
    6330    1.1502399   -21325.553   -342.23402    293.72175 
    6340    1.1502399   -21328.852   -45.017448    286.50711 
    6350    1.1502399   -21331.572    300.40709     290.8406 
    6360    1.1502399   -21332.747    802.67644    283.93855 
    6370    1.1502399   -21332.936    1105.3239    285.32443 
    6380    1.1502399   -21331.699     1231.006    288.29988 
    6390    1.1502399   -21328.944    1189.9524    286.65907 
    6400    1.1502399   -21325.259    1035.9936    288.46146 
    6410    1.1502399   -21320.271    972.49023    288.18966 
    6420    1.1502399   -21314.173    1033.0468    285.61022 
    6430    1.1502399   -21307.028    714.70807    289.78371 
    6440    1.1502399   -21298.879    309.93598    293.27836 
    6450    1.1502399   -21291.065    433.94989    294.87451 
    6460    1.1502399    -21283.36    1090.8399    288.48356 
    6470    1.1502399   -21276.225    880.00232    295.03949 
    6480    1.1502399   -21269.922    849.10708    290.05683 
    6490    1.1502399   -21265.378    269.13296    304.43893 
    6500    1.1502399    -21260.93    722.00148    292.87013 
    6510    1.1502399   -21257.606    1051.7469    290.08872 
    6520    1.1502399   -21254.506    1028.8164    289.44803 
    6530    1.1502399   -21251.586    718.69468    294.27951 
    6540    1.1502399   -21248.176    509.08771    293.96241 
    6550    1.1502399   -21245.109    74.358324    297.24945 
    6560    1.1502399   -21241.898    30.848566    295.65808 
    6570    1.1502399   -21238.932    315.82129    293.56723 
    6580    1.1502399    -21236.19    442.50338    291.40394 
    6590    1.1502399   -21232.591    363.99253    294.99145 
    6600    1.1502399   -21228.118     441.0125    294.30516 
    6610    1.1502399    -21223.68     745.0686    294.01009 
    6620    1.1502399   -21219.678    810.46751    300.77093 
    6630    1.1502399   -21215.117    934.14302    294.27657 
    6640    1.1502399   -21210.531    825.78421    301.52726 
    6650    1.1502399   -21205.963    1131.9474    296.82263 
    6660    1.1502399   -21201.509    1193.1742      295.067 
    6670    1.1502399   -21196.831    1402.8345    294.52064 
    6680    1.1502399   -21192.467    1064.5417    300.05219 
    6690    1.1502399   -21187.501    875.81962    294.47036 
    6700    1.1502399   -21182.403    540.45146    299.49236 
    6710    1.1502399   -21177.165    638.35488     293.0158 
    6720    1.1502399   -21172.112    442.56526    299.49072 
    6730    1.1502399   -21166.984    521.89361    299.83278 
    6740    1.1502399    -21161.87    451.97107    297.36255 
    6750    1.1502399   -21156.813    714.49751    299.78314 
    6760    1.1502399   -21152.507    1075.2919    301.92556 
    6770    1.1502399   -21147.971    1419.8742    301.78833 
    6780    1.1502399   -21144.533     1545.006    307.62774 
    6790    1.1502399    -21141.92    1805.6597    304.94082 
    6800    1.1502399   -21140.107    1910.6912    301.13901 
    6810    1.1502399   -21139.286    1555.0605    310.41735 
    6820    1.1502399   -21139.083    1480.4005    305.08346 
    6830    1.1502399    -21140.44    1464.2645    304.69525 
    6840    1.1502399   -21142.719    1133.1985    303.94006 
    6850    1.1502399   -21145.804    705.77834    304.72959 
    6860    1.1502399    -21149.43    715.19753    300.46559 
    6870    1.1502399   -21154.266    730.40222    301.69585 
    6880    1.1502399   -21159.777    470.61002     304.3807 
    6890    1.1502399   -21165.405     330.7452    293.30136 
    6900    1.1502399    -21172.31   -369.06875     306.6231 
    6910    1.1502399   -21179.985   -217.44541    300.27958 
    6920    1.1502399   -21187.779    307.86973    293.44269 
    6930    1.1502399   -21195.625    345.20549    296.17106 
    6940    1.1502399   -21203.158    333.65442     297.0375 
    6950    1.1502399   -21210.671    737.80239     299.0253 
    6960    1.1502399   -21217.804    1232.7142    293.54021 
    6970    1.1502399   -21223.975    1322.0004    293.52785 
    6980    1.1502399    -21229.54    1451.2941    295.52276 
    6990    1.1502399    -21234.53    1690.6428     291.8049 
    7000    1.1502399    -21238.34    1415.1659    298.30057 
    7010    1.1502399   -21241.293    1322.8309    296.00141 
    7020    1.1502399   -21244.314    1357.8585    299.85777 
    7030    1.1502399   -21246.841    1723.2029    293.71642 
    7040    1.1502399   -21248.715      1680.42     296.3386 
    7050    1.1502399   -21249.674    1470.0416    294.63122 
    7060    1.1502399   -21250.484    1188.6463    295.84346 
    7070    1.1502399   -21251.391    1046.0276    296.51025 
    7080    1.1502399   -21251.626    609.23623     297.5143 
    7090    1.1502399   -21251.326    675.99452    291.58033 
    7100    1.1502399   -21251.388    771.73864    292.59791 
    7110    1.1502399   -21250.015     893.6647    289.70079 
    7120    1.1502399   -21248.149    879.97511     295.2476 
    7130    1.1502399    -21246.23    987.90109    293.40135 
    7140    1.1502399    -21244.32    789.05113    300.02152 
    7150    1.1502399     -21242.5    759.41497    299.26337 
    7160    1.1502399   -21241.439     807.9595    301.62653 
    7170    1.1502399   -21240.023    1169.4054    294.13669 
    7180    1.1502399   -21239.232    1207.4428    300.96909 
    7190    1.1502399   -21238.063    1663.7099    292.16402 
    7200    1.1502399   -21237.198    1682.3942    301.20136 
    7210    1.1502399     -21236.4     1596.245    304.03187 
    7220    1.1502399   -21235.973    1631.4865    299.18694 
    7230    1.1502399   -21235.722    1658.7428    293.78633 
    7240    1.1502399   -21235.463    1389.1766    300.36588 
    7250    1.1502399   -21234.966    1250.4332    291.56054 
    7260    1.1502399   -21234.732    670.87447    300.95911 
    7270    1.1502399   -21233.556    441.41183    295.90513 
    7280    1.1502399   -21232.438    146.20793    292.98075 
    7290    1.1502399   -21231.227    169.23821    294.94381 
    7300    1.1502399    -21229.69    600.76191     299.9933 
    7310    1.1502399   -21227.786    917.61763    298.75786 
    7320    1.1502399   -21225.709    1008.5536    299.92289 
    7330    1.1502399     -21224.1    1279.8609    300.85348 
    7340    1.1502399   -21222.512    1633.7048    298.06711 
    7350    1.1502399   -21220.936    1537.2589    297.65562 
    7360    1.1502399   -21219.117    947.01163    302.55018 
    7370    1.1502399   -21216.952    812.26098    293.96254 
    7380    1.1502399   -21214.774    936.10711    295.85886 
    7390    1.1502399    -21211.27    815.03663    294.65018 
    7400    1.1502399   -21206.299    579.63375    287.65422 
    7410    1.1502399   -21199.662    509.40721    293.84474 
    7420    1.1502399   -21191.135    290.85177    299.47892 
    7430    1.1502399   -21180.893      457.073    293.96537 
    7440    1.1502399   -21169.309    782.25188    299.12888 
    7450    1.1502399   -21157.019     1297.384    296.51367 
    7460    1.1502399   -21145.676    1094.6598    310.68753 
    7470    1.1502399   -21134.943    1000.7486    309.08471 
    7480    1.1502399   -21126.869    1019.0148    307.58648 
    7490    1.1502399   -21121.352    1095.0196    308.96252 
    7500    1.1502399   -21117.671    725.85278    310.89773 
    7510    1.1502399   -21115.108    798.61178     301.0343 
    7520    1.1502399   -21114.202    380.19868    309.95102 
    7530    1.1502399   -21113.996    365.26194    305.98226 
    7540    1.1502399   -21115.375    508.05108    310.92071 
    7550    1.1502399   -21117.801    824.44478    306.68847 
    7560    1.1502399    -21121.17     1030.898    301.81224 
    7570    1.1502399   -21125.213    644.93225    307.56025 
[...]
  337660    1.1502399   -21614.405    2093.5395    301.22459 
  337670    1.1502399   -21614.065    1892.4582    301.78216 
  337680    1.1502399    -21614.98    1580.7805    311.36131 
  337690    1.1502399   -21616.179    1861.0075     300.1464 
  337700    1.1502399   -21618.048    1862.2355    301.47124 
  337710    1.1502399   -21620.889    1362.2819    309.23862 
  337720    1.1502399   -21623.914    1641.0931    303.86068 
  337730    1.1502399   -21627.934    1740.9944    308.63617 
  337740    1.1502399   -21631.646    1862.5915    296.47423 
  337750    1.1502399   -21635.949    1536.2493    305.19204 
  337760    1.1502399   -21640.192    1717.4325    304.51984 
  337770    1.1502399   -21643.941    1894.7938    297.55239 
  337780    1.1502399   -21647.289    1774.0977    305.82757 
  337790    1.1502399   -21650.038    2219.9447    297.21277 
  337800    1.1502399   -21652.323    2113.7337    297.78726 
  337810    1.1502399   -21654.612    1505.3004    306.59308 
  337820    1.1502399   -21656.674    1434.0982    299.57871 
  337830    1.1502399   -21658.655    1091.3374    303.11813 
  337840    1.1502399   -21661.198    936.21297     304.6696 
  337850    1.1502399   -21663.718    1333.9552    300.94726 
  337860    1.1502399   -21666.691    1491.8038    307.26357 
  337870    1.1502399   -21669.836    1909.6837     298.3524 
  337880    1.1502399    -21673.62     1918.734    304.36429 
  337890    1.1502399   -21677.702    2027.6121    298.78821 
  337900    1.1502399   -21681.709    1716.7845    299.21639 
  337910    1.1502399   -21684.959    1757.5411    290.80669 
  337920    1.1502399     -21687.9    1188.4201    293.08648 
  337930    1.1502399    -21690.53    638.98893    302.98547 
  337940    1.1502399   -21693.264    762.60692    303.81231 
  337950    1.1502399   -21696.305    1363.5999    294.64202 
  337960    1.1502399   -21699.568    1545.9274    298.45978 
  337970    1.1502399   -21702.972    1384.4256     298.0514 
  337980    1.1502399    -21706.27    720.75024     304.3505 
  337990    1.1502399   -21709.555    876.09493    294.28653 
  338000    1.1502399   -21713.569    1285.1279    291.93301 
  338010    1.1502399   -21716.651    1457.3453    296.37478 
  338020    1.1502399   -21719.183    1638.7234    294.92156 
  338030    1.1502399   -21722.142     1711.967    304.15937 
  338040    1.1502399   -21725.115    2257.4388    294.25048 
  338050    1.1502399   -21728.803    2234.6898     300.6715 
  338060    1.1502399    -21731.71    2494.0543    287.79501 
  338070    1.1502399   -21734.577    2013.0302    294.89561 
  338080    1.1502399     -21736.6    1615.3031    294.28136 
  338090    1.1502399   -21738.562    1487.7843    296.87521 
  338100    1.1502399   -21740.197    1717.3543    293.76529 
  338110    1.1502399   -21741.496    1893.1452    290.39042 
  338120    1.1502399   -21742.628    1583.1091    300.83045 
  338130    1.1502399   -21743.113    1812.2079     294.1307 
  338140    1.1502399   -21743.932     1726.495    295.27098 
  338150    1.1502399   -21744.769    1619.7072    299.41336 
  338160    1.1502399   -21744.847    1696.8782    291.26802 
  338170    1.1502399   -21745.223    1335.0672    302.78153 
  338180    1.1502399   -21745.353    1563.8966    295.37585 
  338190    1.1502399   -21745.888     1481.937    299.15894 
  338200    1.1502399   -21745.951    1862.2361    292.27344 
  338210    1.1502399   -21746.033    2048.6418     291.7015 
  338220    1.1502399   -21745.099    1802.8328    291.41556 
  338230    1.1502399   -21742.841    1390.7861    294.57176 
  338240    1.1502399    -21739.96    1381.9712    294.55074 
  338250    1.1502399   -21736.357    1973.0774     289.4882 
  338260    1.1502399    -21731.25    2267.8916    286.75612 
  338270    1.1502399   -21724.688    1746.9655     302.1348 
  338280    1.1502399   -21716.628    2230.9334    297.75675 
  338290    1.1502399   -21709.047    2199.2123     303.9048 
  338300    1.1502399   -21701.621    2562.0284    297.57708 
  338310    1.1502399   -21694.407    2279.3551    302.91089 
  338320    1.1502399   -21687.056    1682.7491     299.6845 
  338330    1.1502399   -21680.546    1298.8649    302.96942 
  338340    1.1502399   -21674.382    1362.3473    297.39358 
  338350    1.1502399   -21669.148    1108.9425     302.5982 
  338360    1.1502399   -21663.699    1926.8755     290.1867 
  338370    1.1502399   -21658.281    1872.2069    297.59079 
  338380    1.1502399   -21652.468    1667.8713    299.77654 
  338390    1.1502399    -21647.44     1561.347    306.50641 
  338400    1.1502399   -21642.799    1986.5671    297.63922 
  338410    1.1502399   -21638.944    2050.1123    300.55797 
  338420    1.1502399   -21635.776     2102.585    303.94542 
  338430    1.1502399   -21632.828    2611.7453     299.5881 
  338440    1.1502399   -21630.423    2639.3343    300.70195 
  338450    1.1502399   -21628.875    2240.9423    311.60324 
  338460    1.1502399   -21627.476    2253.1634    305.85501 
  338470    1.1502399   -21628.127    1963.0925    310.22796 
  338480    1.1502399   -21630.681    1940.3187    309.18003 
  338490    1.1502399   -21633.248    2542.2012    297.47847 
  338500    1.1502399   -21636.887    2170.5841    301.09539 
  338510    1.1502399     -21641.4    1517.0739    306.68532 
  338520    1.1502399   -21645.949    1599.7858    299.10311 
  338530    1.1502399   -21651.104    1467.8449    296.91211 
  338540    1.1502399   -21656.465    976.73518    299.62011 
  338550    1.1502399   -21662.735    906.74543    305.54923 
  338560    1.1502399   -21669.207    1443.1772    294.77012 
  338570    1.1502399   -21676.329    1341.5104    300.91459 
  338580    1.1502399   -21683.219    1419.0184    300.45363 
  338590    1.1502399   -21690.947    1477.8003    298.88175 
  338600    1.1502399   -21699.146    1221.9472    301.34088 
  338610    1.1502399   -21706.299    1496.2132    292.72287 
  338620    1.1502399   -21713.218     1439.851    295.34923 
  338630    1.1502399    -21719.27    1263.3868    296.24578 
  338640    1.1502399   -21724.757    1054.5907    297.57558 
  338650    1.1502399   -21729.438    915.42443    297.27577 
  338660    1.1502399   -21733.458    1138.6116    295.43006 
  338670    1.1502399   -21736.216    1503.1127    288.91467 
  338680    1.1502399    -21737.42    1260.7938    289.34392 
  338690    1.1502399   -21738.014    978.08621    291.11097 
  338700    1.1502399   -21737.767    1017.4378    293.62583 
  338710    1.1502399   -21736.737     1095.424    291.53018 
  338720    1.1502399   -21735.411    957.31571    293.83888 
  338730    1.1502399   -21733.545    1254.1742    291.56851 
  338740    1.1502399   -21732.113    1284.6621      297.248 
  338750    1.1502399   -21730.266    1652.1463    294.65792 
  338760    1.1502399   -21728.348    1753.3556    301.50312 
  338770    1.1502399   -21726.823    2141.7602    300.38627 
  338780    1.1502399   -21725.553    2465.5739    295.13604 
  338790    1.1502399   -21724.521    2164.0126     297.8202 
  338800    1.1502399   -21723.954    1762.1701    304.12462 
  338810    1.1502399   -21723.118    1653.9189    300.35479 
  338820    1.1502399   -21722.531    1820.5214    295.38168 
  338830    1.1502399   -21722.129    1588.3513     297.0237 
  338840    1.1502399   -21721.786     1420.983    297.88695 
  338850    1.1502399   -21721.414    1449.1951    300.20743 
  338860    1.1502399   -21720.476     1881.347    289.74844 
  338870    1.1502399   -21719.715     1731.467    297.25798 
  338880    1.1502399   -21717.664    1774.8863    292.36023 
  338890    1.1502399   -21715.853    1207.4322     299.4324 
  338900    1.1502399   -21713.471    1177.5959    290.97438 
  338910    1.1502399   -21710.816    1126.4091      299.844 
  338920    1.1502399    -21707.19    1150.3114    290.22883 
  338930    1.1502399   -21703.196    1018.7471    293.75989 
  338940    1.1502399   -21698.688    1273.2396     294.4188 
  338950    1.1502399   -21693.128    1181.2323    297.62703 
  338960    1.1502399   -21686.205    1279.3708     290.1734 
  338970    1.1502399   -21679.521     748.2883    303.93325 
  338980    1.1502399   -21671.825    775.32583    300.59613 
  338990    1.1502399   -21664.868    992.46344    303.71562 
  339000    1.1502399   -21658.323    1534.0591    300.62576 
  339010    1.1502399   -21652.159    1838.9833    301.89009 
  339020    1.1502399   -21646.147    1990.7239    302.04087 
  339030    1.1502399    -21641.06    2096.2258    305.19616 
  339040    1.1502399   -21636.884    2311.8962    308.38938 
  339050    1.1502399   -21633.474     2681.079    300.97699 
  339060    1.1502399   -21631.048     2288.049    305.11519 
  339070    1.1502399    -21629.06    2211.1064    303.93616 
  339080    1.1502399   -21627.857    1946.3529    300.84175 
  339090    1.1502399   -21626.952    1532.0907     299.0636 
  339100    1.1502399   -21626.751    1109.0304    306.95935 
  339110    1.1502399   -21626.225    1609.7543    290.67629 
  339120    1.1502399   -21626.283     1628.055    299.77696 
  339130    1.1502399   -21625.799    1594.4392    302.75537 
  339140    1.1502399   -21625.671    1806.5099    298.27345 
  339150    1.1502399   -21626.615    2223.4946    304.70474 
  339160    1.1502399   -21627.188    2545.6223    297.58387 
  339170    1.1502399   -21628.592    2152.4032    300.80729 
  339180    1.1502399   -21631.208    1812.2585    306.82807 
  339190    1.1502399    -21634.86    1743.9083    298.50676 
  339200    1.1502399   -21640.944    1554.4636    303.71752 
  339210    1.1502399   -21648.616    1313.5476    303.02382 
  339220    1.1502399   -21658.306    1191.9858    307.50947 
  339230    1.1502399   -21670.435     1363.331    304.83441 
  339240    1.1502399   -21683.615    1416.1003    301.58689 
  339250    1.1502399    -21696.51    1772.3809    291.60802 
  339260    1.1502399   -21708.176    1520.7006    298.55572 
  339270    1.1502399   -21717.647    1395.1342    294.42919 
  339280    1.1502399   -21726.359    1195.7045    298.50564 
  339290    1.1502399   -21733.791    1118.1072    301.27031 
  339300    1.1502399   -21741.119    1370.0605     304.5552 
  339310    1.1502399   -21747.445    2054.9035    294.73169 
  339320    1.1502399   -21753.783    2215.7579    301.30859 
  339330    1.1502399   -21759.404     2481.611    295.71959 
  339340    1.1502399   -21764.723    2392.4839    298.78568 
  339350    1.1502399   -21769.169    2417.6194    292.57336 
  339360    1.1502399   -21772.654    2458.4322    285.25587 
  339370    1.1502399    -21775.24     1954.119    292.23194 
  339380    1.1502399   -21776.903    1713.8059    294.07276 
  339390    1.1502399   -21777.857    1761.8918     288.9031 
  339400    1.1502399   -21777.774    1956.9515    285.97415 
  339410    1.1502399   -21776.653    2003.9607    290.91538 
  339420    1.1502399   -21774.291    1987.1314    292.79037 
  339430    1.1502399    -21771.09    1991.7694    292.92582 
  339440    1.1502399    -21767.38    1973.5745    291.68653 
  339450    1.1502399   -21763.162    1870.1677    291.99147 
  339460    1.1502399   -21757.684    1466.1126    289.13955 
  339470    1.1502399   -21751.466    1050.0553    291.88624 
  339480    1.1502399   -21744.497    1088.1103    293.66483 
  339490    1.1502399   -21736.952    849.79103     297.8615 
  339500    1.1502399   -21728.923    1120.5437    295.80266 
  339510    1.1502399   -21721.303    1750.8507    292.58323 
  339520    1.1502399   -21714.241    1551.3811    297.11788 
  339530    1.1502399   -21707.189    1208.2427    301.04206 
  339540    1.1502399   -21700.487    1220.3451    295.89161 
  339550    1.1502399   -21694.451    1036.0122    296.30529 
  339560    1.1502399   -21688.868    790.27562    299.96152 
  339570    1.1502399   -21683.925    511.44694    302.08287 
  339580    1.1502399   -21679.788    605.10834    300.59939 
  339590    1.1502399   -21676.327    1170.9747    296.06111 
  339600    1.1502399   -21672.919    1223.0408    299.03829 
  339610    1.1502399   -21669.901    1269.7791    303.09292 
  339620    1.1502399   -21668.066    1505.6966    305.71548 
  339630    1.1502399   -21666.186    2101.1303    297.74801 
  339640    1.1502399   -21664.812    2323.2617    296.00894 
  339650    1.1502399   -21664.166    1793.2968     307.6092 
  339660    1.1502399   -21663.753    1878.2388    301.42272 
  339670    1.1502399   -21663.381    2074.7843    290.36012 
  339680    1.1502399   -21663.533    1118.5555     306.3456 
  339690    1.1502399   -21662.947    744.29258    299.09707 
  339700    1.1502399   -21663.212    987.31773    293.67836 
  339710    1.1502399    -21663.78    1127.2971    296.11813 
  339720    1.1502399   -21662.956    1219.2285    291.72949 
  339730    1.1502399   -21662.197    964.77505    299.09523 
  339740    1.1502399   -21660.786    1059.4058    295.56188 
  339750    1.1502399     -21659.7    733.11339    304.65045 
  339760    1.1502399   -21658.799    1147.8631    299.45372 
  339770    1.1502399    -21658.32    1300.6779    299.97369 
  339780    1.1502399   -21657.743    1157.5899    294.85965 
  339790    1.1502399   -21657.285    984.67275    300.98896 
  339800    1.1502399   -21656.625    1002.9721    298.82291 
  339810    1.1502399   -21655.424    1155.9701    293.96612 
  339820    1.1502399   -21654.948    1342.8621    305.17846 
  339830    1.1502399   -21654.315    1537.3583    302.11297 
  339840    1.1502399   -21653.648    1696.1317     299.3788 
  339850    1.1502399   -21653.626    1886.5788    301.32039 
  339860    1.1502399   -21653.742    1951.0799    298.71229 
  339870    1.1502399   -21654.024    1780.0743     298.3335 
  339880    1.1502399   -21654.792    1846.7782    302.76444 
  339890    1.1502399   -21655.737    1783.6193    296.79745 
  339900    1.1502399   -21657.452    1560.5214    303.92982 
  339910    1.1502399   -21659.141    1961.0293      296.665 
  339920    1.1502399   -21661.653    2171.1454    300.76885 
  339930    1.1502399   -21664.582    2374.7597    300.24455 
  339940    1.1502399   -21667.678    2700.7295     293.8806 
  339950    1.1502399    -21671.15    2280.7294    300.14273 
  339960    1.1502399   -21674.632    1703.5065    302.72328 
  339970    1.1502399   -21678.861    1683.5081    300.88816 
  339980    1.1502399   -21684.003    2040.8744    298.65122 
  339990    1.1502399   -21689.458    1861.2224    301.50116 
  340000    1.1502399   -21695.338    1724.2651    301.58067 
  340010    1.1502399   -21701.392    1806.4349    296.93137 
  340020    1.1502399   -21707.639    1904.8326    292.82458 
  340030    1.1502399   -21713.418    1686.2399    294.40373 
  340040    1.1502399   -21718.593    1329.3146       293.72 
  340050    1.1502399   -21723.472    1007.3349    297.65506 
  340060    1.1502399    -21727.75     1506.134    288.85778 
  340070    1.1502399   -21731.382    1256.9801     289.7322 
  340080    1.1502399   -21734.034    818.83883    291.72273 
  340090    1.1502399   -21735.667     858.1682    291.06522 
  340100    1.1502399   -21736.592    969.89564    288.85356 
  340110    1.1502399   -21736.936    868.43611    296.76259 
  340120    1.1502399   -21735.962    978.90298    290.13105 
  340130    1.1502399   -21735.366     916.4854    300.87394 
  340140    1.1502399   -21733.893    1627.3448    290.47484 
  340150    1.1502399   -21732.006     1703.173    290.53043 
  340160    1.1502399   -21729.199    1270.5698    299.76142 
  340170    1.1502399   -21725.504    1734.1083    290.88456 
  340180    1.1502399    -21722.42     1604.903    305.62277 
  340190    1.1502399   -21718.124    1859.5089    293.52465 
  340200    1.1502399   -21714.042    1670.3338    300.84615 
  340210    1.1502399   -21709.607    1736.9724    297.56265 
  340220    1.1502399   -21704.697    1913.9913    290.93633 
  340230    1.1502399   -21699.061    1277.0393    302.61668 
  340240    1.1502399   -21692.412    1387.4982    294.88661 
  340250    1.1502399   -21685.956    1492.8875    302.65074 
  340260    1.1502399   -21678.694    2134.9558    292.18144 
  340270    1.1502399   -21671.175    1901.8657    300.85591 
  340280    1.1502399   -21663.592    1774.2608    302.75223 
  340290    1.1502399   -21656.163     2064.376    299.95939 
  340300    1.1502399   -21649.127    2277.7288    301.61565 
  340310    1.1502399   -21641.925    1953.8806    296.11193 
  340320    1.1502399   -21635.602    1431.4813    305.87935 
  340330    1.1502399   -21629.827    1932.7669    299.24826 
  340340    1.1502399   -21624.347    1738.5956    300.23235 
  340350    1.1502399    -21619.89    1271.2739    306.15289 
  340360    1.1502399   -21616.027    1460.4886    299.55147 
  340370    1.1502399   -21613.205    1421.5978    299.41222 
  340380    1.1502399   -21610.605    961.25027    300.05234 
  340390    1.1502399   -21607.713    952.99262    292.75234 
  340400    1.1502399   -21605.495    772.78002    303.06515 
  340410    1.1502399   -21603.049     1024.482    297.45035 
  340420    1.1502399   -21601.804    1042.8353       309.38 
  340430    1.1502399   -21600.698    1556.8903    296.83768 
  340440    1.1502399   -21601.335    1511.2535      314.735 
  340450    1.1502399   -21601.622    2385.9472    299.89863 
  340460    1.1502399   -21603.363    2271.6918    304.72754 
  340470    1.1502399   -21606.037    2172.6326    306.86535 
  340480    1.1502399   -21609.285    2034.2247    311.11313 
  340490    1.1502399   -21612.813    1969.5047    303.92852 
  340500    1.1502399   -21617.137    2328.7583    300.87357 
  340510    1.1502399   -21621.623     2159.675    303.72453 
  340520    1.1502399   -21625.625    2190.6491    302.58698 
  340530    1.1502399   -21629.724    2146.2232    302.49531 
  340540    1.1502399   -21633.458    2093.3755    304.82051 
  340550    1.1502399   -21636.262    2473.4316    293.01753 
  340560    1.1502399   -21639.348    2167.5786    304.77623 
  340570    1.1502399   -21641.694    2001.9633    301.04563 
  340580    1.1502399   -21644.618    2080.8183     304.7364 
  340590    1.1502399   -21647.477    2198.9787    302.74857 
  340600    1.1502399   -21650.099    2409.0239    296.50915 
  340610    1.1502399   -21652.651    2168.7923    301.08848 
  340620    1.1502399   -21655.338    1900.0752     300.3566 
  340630    1.1502399   -21658.494    1572.6743    307.89697 
  340640    1.1502399   -21661.374    1590.0889    300.40463 
  340650    1.1502399   -21665.243    1461.6579    303.12593 
  340660    1.1502399   -21669.391    1632.1445    301.23932 
  340670    1.1502399   -21673.376    1970.3015    296.35737 
  340680    1.1502399   -21677.004    1979.0788    295.66471 
  340690    1.1502399   -21680.683    2124.6152    294.28538 
  340700    1.1502399   -21683.842    2348.7468    296.44943 
  340710    1.1502399   -21686.448    2029.0546    301.70964 
  340720    1.1502399   -21689.389    1778.2119    299.80606 
  340730    1.1502399   -21693.526    1637.4789    307.76022 
  340740    1.1502399   -21697.868    1815.8614    300.10911 
  340750    1.1502399   -21702.396    1815.2144    297.32817 
  340760    1.1502399   -21706.921    1916.7094     293.8303 
  340770    1.1502399   -21711.627    1628.4092    297.95259 
  340780    1.1502399   -21714.702    1782.8984    289.58706 
  340790    1.1502399   -21718.274     1349.561      299.964 
  340800    1.1502399   -21721.867     1384.417    298.79409 
  340810    1.1502399   -21724.673    1731.6111    289.28231 
  340820    1.1502399   -21727.428     1619.369    294.35007 
  340830    1.1502399   -21729.512    1598.9898    294.99926 
  340840    1.1502399   -21731.149    1851.2594     292.7226 
  340850    1.1502399   -21732.768    1875.3994    297.50223 
  340860    1.1502399   -21734.245    2289.8455    296.16212 
  340870    1.1502399   -21735.432    2349.1748    296.93266 
