
variable systemNsize equal 10
variable rndSeed equal 1234
variable Nrun equal 500000
variable Nstab equal 5000
variable NdumpStats equal 10
variable NdumpFrames equal 10000
variable Text equal 298.0
variable Pext equal 1.0

units real
    # g/mol, A, fs, Kcal/mol, K, atm, g/cm^3
atom_style full
read_data SPCE1.data
  orthogonal box = (0 0 0) to (3.1 3.1 3.1)
  1 by 1 by 3 MPI processor grid
  reading atoms ...
  3 atoms
  scanning bonds ...
  2 = max bonds/atom
  scanning angles ...
  1 = max angles/atom
  reading bonds ...
  2 bonds
  reading angles ...
  1 angles
  2 = max # of 1-2 neighbors
  1 = max # of 1-3 neighbors
  1 = max # of 1-4 neighbors
  2 = max # of special neighbors
  special bonds CPU = 0.000249863 secs
  read_data CPU = 0.00374818 secs

replicate ${systemNsize} ${systemNsize} ${systemNsize}
replicate 10 ${systemNsize} ${systemNsize}
replicate 10 10 ${systemNsize}
replicate 10 10 10
  orthogonal box = (0 0 0) to (31 31 31)
  1 by 1 by 3 MPI processor grid
  3000 atoms
  2000 bonds
  1000 angles
  2 = max # of 1-2 neighbors
  1 = max # of 1-3 neighbors
  1 = max # of 1-4 neighbors
  2 = max # of special neighbors
  special bonds CPU = 0.000503063 secs
  replicate CPU = 0.0023241 secs

include SPCE1.pot
# Original model from Berendsen et al, J Phys Chem 91:6269 (1987)
# Charges and geometry are specified in the ".data" file.

mass 1 1.008 # H
mass 2 15.9994 # O

#pair_style lj/cut/coul/dsf 0.05 10.0
pair_style lj/cut/coul/long 12.0
    # LJ_Rcut (Coul_Rcut)
#pair_style lj/cut/tip4p/long 2 1 1 1 0.15 12.0

pair_modify tail yes
    # assumtions and approximations:
    # 1) 3d bulk homogeneous liquid (+)
    # 2) RDF is unity beyond the cutoff (?)
    # 3) It's computed at the begining of the run, so N of particles shouldn't be changed (+)
    # 4) atoms don't feel additional energy but it's added to the PE etc
#kspace_style pppm/tip4p 1.0e-5
kspace_style pppm 1.0e-5
    # accuracy - desired relative error in forces

pair_coeff 1 1 0.00000 0.000
pair_coeff 1 2 0.00000 0.000
    # TODO - I would put here the sizes of H and O atoms instead of one big LJ repulsion from the O atom. What "e" to choose is still a question.
pair_coeff 2 2 0.1550 3.1536
    # epsilon, sigma, [LJ_Rcut, [Coul_Rcut]]
    # distance between H and O is 1.0 so 3.166 > 1.0 accounts for the size of a molecule as a whole
    # I guess the major part in forces inside a molecule are indeed due to OH and HOH (angle) bondings, so computing LJ and Coul for them would be practically a waste of time so it may be ommitted. So I see only an optimizational reason to set LJ coefs to 0 for H atoms inside a molecule. However here (as far as I understand) we set all LJ coefs to 0. I understand LJ is a short-rage potential so its contribution can be neglegible compared to Coul, but it's not obvious for me why it actually is.
    # TODO - there might be a more correct way to ommit unnecessary interaction by using special_bond

bond_style harmonic
    # E = k(r-r0)^2
bond_coeff 1 0.0 1.0
    # bondID k r0
    # ? - how does k=0 make sense?
    # Is this to formaly bond atoms but actual bonding is done by rattle?

angle_style harmonic
angle_coeff 1 0.0 104.52
    # ? - same, how does k=0 make sense?


velocity all create ${Text} ${rndSeed}
velocity all create 298 ${rndSeed}
velocity all create 298 1234

fix removeMomentum all momentum 1 linear 1 1 1 angular
    # 1 - adjust the momentum every 1 timesteps
    # linear 1/0 1/0 1/0 - zero the P_x/y/z
    # angular - zero angular momentum (TODO - add "angular" here?)
    # scale - scale velocities after the adjustment so T is conserved (TODO - add "scale" here?)

fix stab_iso all npt temp ${Text} ${Text} $(50.0*dt) iso ${Pext} ${Pext} $(500.0*dt)
fix stab_iso all npt temp 298 ${Text} $(50.0*dt) iso ${Pext} ${Pext} $(500.0*dt)
fix stab_iso all npt temp 298 298 $(50.0*dt) iso ${Pext} ${Pext} $(500.0*dt)
fix stab_iso all npt temp 298 298 50 iso ${Pext} ${Pext} $(500.0*dt)
fix stab_iso all npt temp 298 298 50 iso 1 ${Pext} $(500.0*dt)
fix stab_iso all npt temp 298 298 50 iso 1 1 $(500.0*dt)
fix stab_iso all npt temp 298 298 50 iso 1 1 500
    # Tstart,Tstop = external temperature at start/end of run
    # Tdamp = temperature damping parameter (time units)
    # temp - for thermostat, iso - for barostat

fix stab_constrain all rattle 1.0e-5 100 0 b 1 a 1
  0 = # of size 2 clusters
  0 = # of size 3 clusters
  0 = # of size 4 clusters
  1000 = # of frozen angles
  find clusters CPU = 0.000511885 secs
    # fix ID group-ID shake tol iter N constraint1 value1 ...
    # iter - max # of iterations in each SHAKE solution
    # print SHAKE statistics every N many timesteps (0 = never)
    # b - bonds, a - angles
    # b 1 - bonds of type 1
    # a 1 - bonds of type 1
    # shake adds forces to make the displacement satisfy constraints - e.g. |r_ij|=d
    # rattle does the same and additionally it refines velocities - e.g. (|r|)'_t = 0.
    # *should be defined after other force- and v- modifiers since it doesn't account for them

thermo_style custom step density press temp
thermo ${NdumpStats}
thermo 10
run ${Nstab}
run 5000
PPPM initialization ...
  using 12-bit tables for long-range coulomb (src/kspace.cpp:332)
  G vector (1/distance) = 0.258199
  grid = 24 24 24
  stencil order = 5
  estimated absolute RMS force accuracy = 0.00209317
  estimated relative force accuracy = 6.30351e-06
  using double precision FFTW3
  3d grid and FFT values/proc = 14415 4608
Neighbor list info ...
  update every 1 steps, delay 10 steps, check yes
  max neighbors/atom: 2000, page size: 100000
  master list distance cutoff = 14
  ghost atom cutoff = 14
  binsize = 7, bins = 5 5 5
  1 neighbor lists, perpetual/occasional/extra = 1 0 0
  (1) pair lj/cut/coul/long, perpetual
      attributes: half, newton on
      pair build: half/bin/newton
      stencil: half/bin/3d/newton
      bin: standard
Per MPI rank memory allocation (min/avg/max) = 12.04 | 12.19 | 12.45 Mbytes
Step Density Press Temp 
       0    1.0041715    19486.032    296.44808 
      10    1.0017916    11777.293     395.7935 
      20   0.99611341   -1074.1267    858.63574 
      30   0.99057859    -5870.339    1052.0289 
      40   0.98690409   -3261.9839    890.05892 
      50    0.9845079   -1578.9546    797.02432 
      60   0.98277914   -797.66755    746.69782 
      70   0.98142721   -430.63333    715.37703 
      80   0.98031045   -386.44557    700.90387 
      90   0.97938211   -303.44562    676.85835 
     100    0.9786141   -427.34139    658.85731 
     110   0.97799955   -37.581452    619.96045 
     120    0.9774573   -142.41817    601.52548 
     130   0.97698068   -218.07851    576.88838 
     140   0.97659047   -218.27609    557.23419 
     150   0.97627524   -105.74783    531.48479 
     160   0.97601409   -291.93569    508.16605 
     170   0.97585256   -710.66202    499.47225 
     180    0.9758901   -809.46102    478.57119 
     190   0.97616145   -1010.8076    464.68805 
     200   0.97670718   -1222.9423    447.77037 
     210   0.97758185   -1220.8957    431.85117 
     220   0.97876991   -1021.8685     413.6103 
     230   0.98022338   -1198.8262    408.93065 
     240   0.98197176   -1473.6129      401.878 
     250   0.98408195   -1627.9319    392.73595 
     260   0.98657997   -1546.5898     376.8254 
     270   0.98943064   -1624.8609    370.84987 
     280   0.99261869   -1504.8813    358.86107 
     290    0.9960746   -1356.6979    351.89816 
     300   0.99971219   -1257.0748    348.49688 
     310     1.003459    -1116.879    342.78799 
     320    1.0072336   -894.71471    335.84573 
     330    1.0109385   -703.35601    330.28839 
     340    1.0145066   -720.03279    332.12744 
     350    1.0179266   -640.58967    326.91837 
     360      1.02118   -379.20712    319.71947 
     370    1.0242023   -37.970867    309.01414 
     380    1.0269435   -373.14681    318.15727 
     390    1.0295015   -397.81471    314.55977 
     400    1.0319115   -40.979226    302.63815 
     410    1.0341095    112.80972      298.014 
     420    1.0360816   -34.928048    298.07595 
     430     1.037891   -191.01627    295.90995 
     440    1.0396031    -304.9541    295.39642 
     450    1.0412708   -499.30222     299.2298 
     460    1.0429402   -281.21518    290.56011 
     470    1.0445756   -264.15673    288.21731 
     480    1.0461778   -501.93037    292.49112 
     490    1.0478105   -628.17742    294.84358 
     500    1.0495084   -450.82793    293.11483 
     510    1.0512162   -9.7991004    289.54249 
     520    1.0528158    340.86176    289.65595 
     530    1.0542167    658.86453       290.34 
     540     1.055337    996.21495    284.68091 
     550    1.0561167    853.91103    288.12712 
     560    1.0566121    371.07418    295.49186 
     570    1.0569665    97.029214    297.43089 
     580    1.0572707   -11.504086    292.65991 
     590    1.0575666   -191.52504    292.58304 
     600    1.0578999   -246.86745    291.34043 
     610    1.0582889   -313.52085    291.43324 
     620     1.058745   -203.75458    290.06872 
     630    1.0592347   -18.217049    289.35158 
     640    1.0597126    17.017806    292.01962 
     650    1.0601623    65.701694    291.82878 
     660    1.0605774    42.411711    294.83293 
     670    1.0609607    14.031888    304.90747 
     680    1.0613192    106.62864    309.67911 
     690    1.0616303    157.00307    316.56421 
     700    1.0618729      572.946    307.57695 
     710    1.0619432    980.75799     302.7929 
     720    1.0617258    1318.6022    294.05629 
     730    1.0611498    1063.2478    299.15366 
     740    1.0602952    562.15056     304.2522 
     750    1.0593039    288.41056    302.02285 
     760    1.0582677    139.07997    303.55414 
     770    1.0572325    39.226215    301.81134 
     780     1.056232   -191.23272    300.72021 
     790    1.0553276   -409.72421    298.54752 
     800    1.0545757   -504.25963     292.0812 
     810    1.0540105   -838.06465    303.96038 
     820     1.053695   -728.98193    298.16726 
     830    1.0536082   -747.92668    299.71188 
     840    1.0537329   -520.05073    293.62027 
     850    1.0540099   -449.92357    298.91107 
     860    1.0544024   -272.43434    292.91642 
     870    1.0548697   -321.70229    292.96944 
     880    1.0554084    -277.8567    293.77491 
     890    1.0560093   -234.46065    297.24745 
     900    1.0566608   -314.83111    297.19471 
     910    1.0573838   -406.36999    298.56871 
     920    1.0581942   -273.34605    292.43968 
     930    1.0590573   -144.16089    289.99847 
     940    1.0599346    -43.30574    288.84489 
     950    1.0608007    -173.8932    299.49821 
     960    1.0616746    99.542077    296.53767 
     970     1.062493    328.33916    299.38474 
     980    1.0631864    557.00924     304.4722 
     990    1.0636882    925.97352    299.73731 
    1000    1.0639197    764.26523    307.19079 
    1010    1.0639165    654.65625    308.45885 
    1020    1.0637158    741.00979    300.58642 
    1030    1.0633247    324.04749    303.03789 
    1040    1.0628467    68.138401    295.92501 
    1050    1.0623661   -138.26343    299.14953 
    1060    1.0619331   -56.054237     292.6088 
    1070    1.0615366   -143.68847    290.12826 
    1080    1.0611964   -401.93821    295.41893 
    1090    1.0609762   -429.58713    294.34927 
    1100    1.0608924   -603.01622    299.42304 
    1110    1.0609804   -565.91405    302.81104 
    1120    1.0612218   -239.35154    298.07714 
    1130    1.0615283    64.144574    297.32769 
    1140    1.0617988    520.94859    292.33588 
    1150     1.061923    524.97781    302.11485 
    1160    1.0618816    724.39638    298.56608 
    1170      1.06163    970.80973    295.79951 
    1180    1.0611046    1022.4292    300.41637 
    1190    1.0603067    644.48055    301.63847 
    1200    1.0593442    218.23828    303.00116 
    1210    1.0583367    82.781145     300.9695 
    1220    1.0573316    16.772087    297.99741 
    1230    1.0563532   -91.604114    290.64908 
    1240    1.0554369   -453.89324    295.00972 
    1250    1.0546768   -683.31347    305.29486 
    1260    1.0541225   -358.32291    293.58905 
    1270    1.0536977   -258.95293    296.00956 
    1280    1.0533492    101.18949    291.88247 
    1290    1.0529836    294.77267    290.80794 
    1300    1.0525517    110.42685    299.17077 
    1310     1.052094    30.985034    294.21427 
    1320    1.0516436   -117.66408    295.64867 
    1330    1.0512331   -108.19451    297.48923 
    1340    1.0508685    -128.8661    296.21354 
    1350    1.0505513   -174.33271    292.89112 
    1360     1.050293   -251.68447    289.80692 
    1370    1.0501244   -487.84051    296.49744 
    1380    1.0500836   -228.15269    293.48459 
    1390    1.0501143     23.86695    296.25277 
    1400    1.0501393      155.269    296.57116 
    1410    1.0501211     213.1739    291.74914 
    1420    1.0500512   -11.770704      297.543 
    1430    1.0499817    -152.6474      303.781 
    1440    1.0499548   -140.86292      313.673 
    1450    1.0499567    242.04276    304.05588 
    1460     1.049896    407.80884    302.75651 
    1470    1.0497243    266.71856    313.57654 
    1480    1.0494632    553.84789    303.10993 
    1490    1.0490548    635.23355    301.34647 
    1500     1.048477    368.90385    302.38328 
    1510    1.0478042    62.844184    306.38879 
    1520    1.0471153    73.570242    301.23375 
    1530    1.0464222   -37.962751    297.87857 
    1540     1.045762   -301.69404    296.94421 
    1550    1.0452016   -498.94505    290.68566 
    1560    1.0448092   -985.20811    295.55762 
    1570    1.0447036   -1168.3486    294.98496 
    1580    1.0449326    -954.8631    295.43694 
    1590    1.0454304   -547.27406    291.58891 
    1600    1.0460874   -412.88419     293.4302 
    1610    1.0468529   -306.53225    295.93391 
    1620     1.047689   -41.284533    296.04926 
    1630    1.0485233    237.41025    296.14659 
    1640    1.0492703    521.98471    294.93714 
    1650    1.0498501    797.23755    290.10457 
    1660    1.0501954    756.72686    292.03313 
    1670    1.0503201    351.99769    301.07438 
    1680    1.0503334    157.08167    302.42281 
    1690    1.0503026    6.9310127    306.43158 
    1700    1.0502555    248.44385    297.21224 
    1710    1.0501475    285.80196    295.92119 
    1720    1.0499591    198.97311    296.51414 
    1730    1.0497186    41.251535    299.29065 
    1740    1.0494613    63.505845    302.50923 
    1750     1.049187    226.43353    297.47904 
    1760    1.0488554     205.6281    295.06426 
    1770    1.0484791   -183.69061    303.12188 
    1780    1.0481547   -349.20174    306.49075 
    1790    1.0479296   -193.77409    302.32403 
    1800    1.0477611    62.201298    297.94163 
    1810    1.0475866    56.966114    297.36821 
    1820    1.0473966    45.287248     298.5523 
    1830    1.0471937    93.740887    301.09446 
    1840    1.0469576    379.67649    290.56654 
    1850    1.0466241    338.86395    294.16026 
    1860      1.04619    350.92918    297.64062 
    1870    1.0456605    317.13457    295.72246 
    1880    1.0450499     67.65238    300.74279 
    1890    1.0444221   -57.694099    298.14204 
    1900    1.0438159   -62.048511    295.52578 
    1910    1.0432371   -21.480359    291.16072 
    1920    1.0426842   -394.36758    297.56465 
    1930    1.0422492   -688.95451    297.04473 
    1940    1.0420243   -894.01407    300.64067 
    1950     1.042059   -889.59456    308.99017 
    1960    1.0423414   -446.99169     298.5406 
    1970    1.0427644   -324.03952    296.28672 
    1980     1.043273   -194.76209    293.23839 
    1990    1.0438406   -226.56211    304.59491 
    2000    1.0444521    247.01952    298.92755 
    2010    1.0449871     664.6687    288.10787 
    2020    1.0453484    273.91247    300.70769 
    2030    1.0456137     38.62207    303.53548 
    2040    1.0458592    105.43806    303.89179 
    2050    1.0460598    530.20256    294.60353 
    2060    1.0461187    429.36687    295.54675 
    2070    1.0460635   -108.87878     301.2764 
    2080    1.0460315    -346.8245    302.00174 
    2090    1.0460996   -326.36798    297.89775 
    2100    1.0462596   -232.67659    290.70508 
    2110    1.0464943   -282.88265    293.35593 
    2120    1.0468078   -329.05145    292.42733 
    2130    1.0472192   -352.32291    295.89153 
    2140    1.0477256   -176.68094    294.56826 
    2150    1.0482804    42.730188    300.68021 
    2160    1.0488059    606.79958     297.6836 
    2170    1.0491523    1052.3402    294.13097 
    2180    1.0491924    1198.6503    292.59339 
    2190    1.0488913    850.49685    303.34683 
    2200    1.0483299    767.10874    298.60666 
    2210    1.0475515     671.1565    297.52731 
    2220    1.0465806    539.47465     296.0359 
    2230    1.0454619    239.30124    296.11155 
    2240    1.0442793    4.3798302    300.02428 
    2250    1.0430997    9.8526969    299.83104 
    2260    1.0419289   -3.9120417     304.9381 
    2270    1.0407606    245.05095    295.75931 
    2280    1.0395455    132.90951    299.25249 
    2290    1.0383042   -20.907461    298.34051 
    2300    1.0370895   -301.81741    298.77809 
    2310    1.0359805   -648.16028    308.97553 
    2320    1.0350587   -392.16452    294.93249 
    2330    1.0342874   -637.70945    305.92769 
    2340    1.0336997   -640.65996     299.6591 
    2350    1.0333155   -677.08187     298.0397 
    2360    1.0331351   -774.78773    297.48118 
    2370    1.0331887   -985.51747     302.3869 
    2380    1.0335208    -863.1341    293.78077 
    2390    1.0341036   -704.00512    296.85387 
    2400    1.0348759   -283.84041    284.80797 
    2410    1.0357431   -481.68315     292.0454 
    2420    1.0367398   -697.04753    298.15217 
    2430    1.0379138   -425.39311    289.94893 
    2440     1.039204    -249.2757    298.11847 
    2450    1.0405408    66.852019    294.97423 
    2460    1.0418458    162.23479    296.06555 
    2470    1.0430827    153.35481    303.23988 
    2480    1.0442431    420.62148    301.73431 
    2490    1.0452606    634.96131    300.44589 
    2500    1.0460792    510.06888    306.74965 
    2510    1.0467315    408.44055    305.43798 
    2520    1.0472465    476.45813    301.38735 
    2530    1.0476105    570.04791    302.36593 
    2540    1.0477971      769.127    294.49788 
    2550    1.0477596    790.01155    296.06486 
    2560    1.0475003    534.89731    298.32547 
    2570    1.0470927    193.06519    301.70612 
    2580    1.0466197    342.23928    295.07133 
    2590    1.0460654    308.12601    296.02308 
    2600    1.0454341    150.37365    296.29486 
    2610    1.0447727   -7.9770231    297.56182 
    2620    1.0441205   -13.087035    292.53906 
    2630     1.043492   -188.44264    298.24957 
    2640    1.0429237   -229.64609    300.21224 
    2650    1.0424369   -337.81024    296.81435 
    2660    1.0420542   -342.92915    294.06653 
    2670    1.0417816   -341.55701     301.1185 
    2680    1.0416048   -100.93565    296.61507 
    2690    1.0414653    72.656302    291.18293 
    2700    1.0413119    23.049065    291.87823 
    2710    1.0411566   -89.491107    294.61964 
    2720    1.0410282   -143.43755    291.45328 
    2730    1.0409485   -270.45922    296.75583 
    2740    1.0409418   -180.32271    297.70933 
    2750    1.0409853     41.41939    292.71367 
    2760    1.0410187    193.05578    293.16075 
    2770    1.0409941    268.85912    295.02685 
    2780    1.0408986    93.817979    306.51626 
    2790    1.0407624    339.00471    298.04072 
    2800    1.0405388    389.82713     303.1695 
    2810    1.0401964    517.34544    302.77493 
    2820    1.0397142    511.71059    307.59631 
    2830    1.0390766    768.39253    300.63305 
    2840    1.0382348    673.67875    301.11379 
    2850    1.0372059     566.3058    299.03369 
    2860    1.0360329    262.17398    304.37259 
    2870    1.0348031   -133.87865    306.53135 
    2880     1.033628    -334.3459    301.87738 
    2890    1.0325696   -454.13066    298.60033 
    2900     1.031664   -576.21612    298.36564 
    2910    1.0309452   -608.48687    296.81521 
    2920    1.0304172   -633.25483     297.6272 
    2930    1.0300863    -711.0136    302.69384 
    2940    1.0299574   -497.36178    296.28125 
    2950    1.0299797   -290.72897    296.22317 
    2960    1.0300884   -214.24638    300.38852 
    2970      1.03025     16.89042    299.97663 
    2980    1.0304011    399.62596    296.50356 
    2990    1.0304321    755.95571    288.47279 
    3000    1.0302583    481.68461    294.65314 
    3010    1.0299488   -18.991201    297.77419 
    3020    1.0296482   -384.55319     304.8392 
    3030    1.0294484   -195.93119    296.74539 
    3040    1.0293174   -191.98233    298.68273 
    3050    1.0292393   -64.004387    293.83588 
    3060    1.0291826    48.249552    289.01649 
    3070     1.029119   -82.690123    297.27419 
    3080     1.029071    18.768886    297.78994 
    3090    1.0290185    100.58078    298.55535 
    3100    1.0289335    312.98006    298.58818 
    3110    1.0287488    714.09803    292.93314 
    3120    1.0283743    523.78531    294.52093 
    3130    1.0278606    10.074903    296.44424 
    3140    1.0273421   -227.21096    293.34552 
    3150    1.0269002   -502.32658    296.87162 
    3160    1.0266048   -543.14735    290.41926 
    3170    1.0264734   -485.04484     291.6607 
    3180    1.0264864   -495.64271    298.71929 
    3190    1.0266394   -317.61074    294.71927 
    3200    1.0268903   -209.41863    296.45481 
    3210    1.0271952   -75.121357    302.81661 
    3220     1.027518    163.09452    302.67966 
    3230     1.027792    260.24939    303.08131 
    3240    1.0279879    337.68539    307.14964 
    3250    1.0280737    651.61105    299.42701 
    3260    1.0279813    564.75054     302.0657 
    3270    1.0277255    342.76193    303.72579 
    3280    1.0273662    189.76509      303.134 
    3290    1.0269539    125.62967    303.27852 
    3300    1.0264984     272.5815     293.7997 
    3310     1.025986   -93.484141    304.22048 
    3320     1.025493   -195.35308    298.59001 
    3330    1.0250622   -251.68584    296.35535 
    3340    1.0247068   -243.61953    297.64318 
    3350     1.024419   -106.88728     290.2245 
    3360    1.0241783   -389.43422    298.53992 
    3370    1.0240435   -412.65825    293.10993 
    3380    1.0240328    -414.0345    295.88763 
    3390     1.024141    -326.9268    295.81349 
    3400    1.0243428   -238.62585    294.68114 
    3410    1.0246181   -219.70295    295.23632 
    3420    1.0249551   -168.65323    297.44317 
    3430    1.0253424   -165.84546    298.26855 
    3440    1.0257763   -107.67595    296.20084 
    3450    1.0262401    5.4697495    297.47378 
    3460    1.0266989    186.42938    296.10726 
    3470    1.0271005    408.80425    295.41659 
    3480    1.0273851    492.22542    293.95902 
    3490    1.0275315     357.8307     296.9217 
    3500    1.0275702    205.38406     302.1538 
    3510    1.0275484    59.712624    304.53617 
    3520    1.0275058    96.730095     297.9906 
    3530     1.027439    84.614352    298.20851 
    3540    1.0273473    24.041802    299.30255 
    3550    1.0272438    112.83877    294.67627 
    3560    1.0271188   -122.93587    299.90749 
    3570    1.0270261   -320.02068    304.23343 
    3580    1.0270217    -239.6955    297.96311 
    3590    1.0270964   -370.64901    302.73062 
    3600    1.0272683   -106.53926    300.55635 
    3610    1.0274699    191.49895      293.476 
    3620    1.0276285     96.22261    294.49354 
    3630    1.0277598   -79.210446     300.0635 
    3640    1.0279081   -35.605026    295.68462 
    3650    1.0280764   -164.25428     300.3292 
    3660    1.0282866   -190.19273    300.21936 
    3670    1.0285593   -249.51179    303.97772 
    3680    1.0288943    57.010932    292.95452 
    3690    1.0292269    82.523942    294.21216 
    3700    1.0295431   -156.36366    304.31996 
    3710    1.0298974   -124.87872    304.10358 
    3720    1.0302954   -133.12325    300.17628 
    3730    1.0307369    -143.9611    299.48973 
    3740    1.0312244   -90.741322    298.09857 
    3750    1.0317434   -99.654413    297.43204 
    3760    1.0323002   -222.35846    301.58991 
    3770    1.0329145    38.094157    293.81738 
    3780    1.0335409   -108.19207    298.78729 
    3790    1.0341952   -87.622576    299.10976 
    3800    1.0348773    217.70843    296.66764 
    3810    1.0354986     551.8204    291.44511 
    3820    1.0359767    476.20244     296.9241 
    3830    1.0363085    508.25647    291.65915 
    3840    1.0365018    346.88102    299.61218 
    3850    1.0365844    443.90412     297.4166 
    3860    1.0365358    598.39507    291.54761 
    3870    1.0363157    507.86442    295.06733 
    3880    1.0359388    434.51128    298.42406 
    3890    1.0354258    468.55451    294.62106 
    3900     1.034771    355.60894     293.9975 
    3910    1.0340113    18.010338    305.45771 
    3920    1.0332254    41.508386    297.68076 
    3930    1.0324319   -213.13407     300.6025 
    3940    1.0316877   -383.58314    304.76681 
    3950    1.0310405   -253.10686    298.80493 
    3960    1.0304629   -190.82994    298.10642 
    3970     1.029937   -162.10121    292.80635 
    3980    1.0294625   -416.65578    293.69785 
    3990     1.029105   -605.08751    298.11723 
    4000    1.0289136   -494.85033    294.78201 
    4010    1.0288735    -507.8494    297.80204 
    4020     1.028977   -402.23266    294.87393 
    4030    1.0292088   -452.13289    300.96118 
    4040    1.0295744   -410.09547    301.22946 
    4050    1.0300647   -168.92017    296.75962 
    4060     1.030613    108.62587    300.18708 
    4070    1.0311286    509.74262    294.99924 
    4080    1.0315272    147.24545    312.27469 
    4090    1.0318615    394.85933    300.12977 
    4100     1.032101    352.98723    301.63122 
    4110    1.0322418    115.75475    303.13768 
    4120    1.0323466   -8.1383707    303.13281 
    4130    1.0324451    203.30911     289.1226 
    4140    1.0324977    70.318671     288.7705 
    4150    1.0325351   -262.42445    296.88749 
    4160    1.0326414   -233.57273    291.54885 
    4170    1.0328216   -138.52505    290.50509 
    4180    1.0330478   -121.27955    294.94309 
    4190    1.0333089    29.715142    299.24923 
    4200    1.0335619    335.49398    296.09483 
    4210    1.0337278    390.09474    297.87878 
    4220    1.0337831    290.14804    300.50877 
    4230    1.0337575    90.984408    301.27176 
    4240    1.0337016    8.1305967    299.86717 
    4250    1.0336378    29.666587    296.44145 
    4260    1.0335685   -72.786496    300.92476 
    4270    1.0335139   -25.593996    303.10743 
    4280    1.0334603    162.29844    303.20853 
    4290    1.0333575    324.34407    298.93416 
    4300    1.0331667    64.679162    302.79772 
    4310    1.0329533   -310.46234    305.30539 
    4320    1.0328226   -405.39249     304.8979 
    4330    1.0328005   -207.45328    302.55059 
    4340    1.0328421   -128.61095    302.89377 
    4350    1.0329208     31.28601    291.47471 
    4360     1.033006   -221.12599    292.36469 
    4370    1.0331585   -422.64326    301.70638 
    4380    1.0334223    23.500304    292.28206 
    4390    1.0336957    233.74117    296.35451 
    4400    1.0339056    350.44736    294.62695 
    4410     1.034018    435.07035    293.40909 
    4420    1.0340034    468.99223    292.04718 
    4430    1.0338487    401.97029    296.91065 
    4440    1.0335621    537.50739    289.83075 
    4450    1.0331214     199.7802    290.64836 
    4460    1.0326126   -332.23956    298.55928 
    4470    1.0321721   -400.37226    297.75548 
    4480    1.0318348   -173.26932    296.10928 
    4490    1.0315377    128.41207    289.02313 
    4500    1.0312083    -72.02986    297.89344 
    4510     1.030886   -228.01663    299.60004 
    4520    1.0306127   -77.845811    298.68066 
    4530    1.0303568    131.81606    294.42634 
    4540     1.030063   -0.7302577    300.31935 
    4550    1.0297561   -114.15533    302.37352 
    4560    1.0294717   -145.45863    299.07302 
    4570    1.0292294   -352.54259    302.31359 
    4580    1.0290819   -413.51131    303.16202 
    4590    1.0290537   -443.06469     306.6574 
    4600    1.0291504   -242.89441    299.89634 
    4610    1.0293328   -221.23328    306.88421 
    4620    1.0295691    221.57708       293.74 
    4630     1.029761    337.44327    296.28376 
    4640    1.0298559    378.43636    295.03325 
    4650    1.0298445    275.67006    299.91986 
    4660    1.0297414    328.12993    296.59623 
    4670    1.0295458    144.13569    294.87275 
    4680     1.029304   -151.82088    301.13534 
    4690    1.0290861    43.322736    291.83319 
    4700     1.028857   -2.7793266     297.4238 
    4710    1.0286156    89.299323    295.83808 
    4720    1.0283388    160.43973    294.20391 
    4730     1.028012   -44.189457    302.81542 
    4740    1.0276769     156.2739    297.11662 
    4750    1.0272885    239.95634    298.98479 
    4760    1.0268264   -3.7098894    305.56438 
    4770    1.0263449    -76.91566    297.02086 
    4780    1.0258798   -261.29806    301.28995 
    4790    1.0254724   -293.95492    301.35553 
    4800     1.025142   -362.76334     300.8116 
    4810    1.0249079   -285.45041    294.06502 
    4820    1.0247586   -406.90105    300.28856 
    4830    1.0247249     -537.922    305.98057 
    4840     1.024842    -264.5121    290.07277 
    4850    1.0250529   -217.11922    291.50388 
    4860    1.0253312   -169.12206    292.65816 
    4870    1.0256688   -164.13692    290.98781 
    4880    1.0260714    -273.5168    298.76806 
    4890    1.0265553   -61.999329    296.71849 
    4900    1.0270747    115.56916    295.22739 
    4910    1.0275754    262.48876    298.22464 
    4920    1.0280104    369.63644    303.95458 
    4930    1.0283425    549.79084    304.32887 
    4940    1.0285198    733.31621     294.7261 
    4950    1.0284979    431.20484    297.26812 
    4960    1.0283473    34.209606    300.32869 
    4970    1.0281731   -40.932521    301.89062 
    4980     1.028002    153.80191    298.87105 
    4990    1.0277794    343.85508    292.10807 
    5000    1.0274597    144.42156    298.22434 
Loop time of 94.1974 on 3 procs for 5000 steps with 3000 atoms

Performance: 4.586 ns/day, 5.233 hours/ns, 53.080 timesteps/s
99.7% CPU use with 3 MPI tasks x 1 OpenMP threads

MPI task timing breakdown:
Section |  min time  |  avg time  |  max time  |%varavg| %total
---------------------------------------------------------------
Pair    | 59.646     | 65.139     | 69.165     |  49.8 | 69.15
Bond    | 0.0070381  | 0.0075533  | 0.0085614  |   0.8 |  0.01
Kspace  | 8.8379     | 12.862     | 18.349     | 112.0 | 13.65
Neigh   | 5.2339     | 5.2342     | 5.2345     |   0.0 |  5.56
Comm    | 2.0621     | 2.099      | 2.1299     |   1.9 |  2.23
Output  | 0.014788   | 0.019364   | 0.028164   |   4.5 |  0.02
Modify  | 8.5048     | 8.5617     | 8.6343     |   1.8 |  9.09
Other   |            | 0.274      |            |       |  0.29

Nlocal:    1000 ave 1024 max 978 min
Histogram: 1 0 0 0 1 0 0 0 0 1
Nghost:    12573.3 ave 12598 max 12538 min
Histogram: 1 0 0 0 0 0 0 1 0 1
Neighs:    591820 ave 641413 max 542791 min
Histogram: 1 0 0 0 1 0 0 0 0 1

Total # of neighbors = 1775460
Ave neighs/atom = 591.82
Ave special neighs/atom = 2
Neighbor list builds = 237
Dangerous builds = 3
unfix stab_iso
unfix stab_constrain

reset_timestep 0
fix iso all npt temp ${Text} ${Text} $(100.0*dt) iso ${Pext} ${Pext} $(1000.0*dt)
fix iso all npt temp 298 ${Text} $(100.0*dt) iso ${Pext} ${Pext} $(1000.0*dt)
fix iso all npt temp 298 298 $(100.0*dt) iso ${Pext} ${Pext} $(1000.0*dt)
fix iso all npt temp 298 298 100 iso ${Pext} ${Pext} $(1000.0*dt)
fix iso all npt temp 298 298 100 iso 1 ${Pext} $(1000.0*dt)
fix iso all npt temp 298 298 100 iso 1 1 $(1000.0*dt)
fix iso all npt temp 298 298 100 iso 1 1 1000
#fix iso all nvt temp ${Text} ${Text} $(100.0*dt)
fix constrain all rattle 1.0e-5 100 0 b 1 a 1
  0 = # of size 2 clusters
  0 = # of size 3 clusters
  0 = # of size 4 clusters
  1000 = # of frozen angles
  find clusters CPU = 0.000496864 secs

thermo_style custom step density etotal press temp
thermo_modify flush yes
    # insures the output is dumped in the file and not buffered or something
thermo ${NdumpStats}
thermo 10
dump trj all atom ${NdumpFrames} wat.lammpstrj
dump trj all atom 10000 wat.lammpstrj

run ${Nrun}
run 500000
PPPM initialization ...
  using 12-bit tables for long-range coulomb (src/kspace.cpp:332)
  G vector (1/distance) = 0.258659
  grid = 24 24 24
  stencil order = 5
  estimated absolute RMS force accuracy = 0.00204602
  estimated relative force accuracy = 6.16152e-06
  using double precision FFTW3
  3d grid and FFT values/proc = 14415 4608
Per MPI rank memory allocation (min/avg/max) = 13.08 | 13.36 | 13.52 Mbytes
Step Density TotEng Press Temp 
       0    1.0274597   -10386.674     227.3843    298.22434 
      10    1.0274516   -10386.051     162.4003    295.82691 
      20    1.0274317   -10385.767    94.601876    299.67536 
      30    1.0274048   -10385.967     58.21635    308.41413 
      40    1.0273706   -10386.932    340.19669    301.52893 
      50     1.027313   -10388.607    468.28321    298.21787 
      60    1.0272224   -10390.483    322.01828      301.418 
      70    1.0271074   -10392.691    233.79254    298.33143 
      80    1.0269763   -10395.367    44.660517    301.72336 
      90    1.0268403     -10398.5   -6.8429206    300.73025 
     100    1.0267058   -10402.269   -101.01521    297.09617 
     110    1.0265795   -10406.477   -217.07516    297.50915 
     120    1.0264677   -10411.176   -214.40007    301.98256 
     130     1.026371   -10416.829   -132.90184    297.51608 
     140    1.0262858   -10423.184   -204.21421    294.82039 
     150    1.0262149   -10429.957   -269.42188    294.83376 
     160    1.0261645   -10436.945   -372.15388    291.75936 
     170    1.0261417   -10443.976   -511.17458    291.56036 
     180    1.0261568   -10450.898   -637.77722    291.93241 
     190    1.0262179   -10457.614   -623.91933     290.2034 
     200    1.0263248   -10463.998   -579.31323    292.30283 
     210    1.0264741   -10470.182    -478.4283    292.90937 
     220    1.0266582   -10476.014   -239.31891    292.25791 
     230    1.0268579     -10481.6    288.90793    289.85732 
     240    1.0270379   -10486.347    622.01698    287.66154 
     250    1.0271734   -10490.302     657.8137    290.66679 
     260    1.0272605   -10493.639    712.28891    292.54455 
     270    1.0272952   -10496.779     690.0967    297.85926 
     280     1.027278   -10499.704    769.90299    289.98731 
     290    1.0272074   -10502.509    521.58392     293.9116 
     300     1.027096   -10504.796    446.36776    294.68223 
     310    1.0269516   -10507.208    354.17128    296.93806 
     320    1.0267804   -10509.551    271.47597    292.41824 
     330    1.0265906   -10511.974     -22.0601    297.61302 
     340    1.0263991   -10514.457    19.659914    292.02347 
     350    1.0262078   -10516.979   -156.04197     294.4486 
     360    1.0260268   -10519.392   -294.38491    293.97433 
     370    1.0258674   -10521.874    -378.0237    295.23937 
     380    1.0257345   -10524.606   -402.61235    294.72072 
     390    1.0256319   -10527.342    -481.8647    291.81852 
     400    1.0255642   -10529.916   -591.07564    292.28545 
     410     1.025539   -10532.106   -507.77839    290.95916 
     420    1.0255506   -10533.647   -377.02016    288.08781 
     430    1.0255923    -10534.38   -455.48582    289.78019 
     440    1.0256682   -10534.253   -664.71351    295.28537 
     450    1.0257909   -10533.538   -522.57611    292.80002 
     460    1.0259525   -10532.219   -316.18264    292.67891 
     470    1.0261393   -10530.298   -209.80865      292.646 
     480    1.0263429   -10527.254   -261.84891    292.03168 
     490    1.0265678   -10523.596   -453.40034    297.78712 
     500    1.0268245   -10519.344   -297.24339    293.88147 
     510    1.0271038   -10514.435    -17.92507    292.71705 
     520    1.0273864   -10508.805    177.52374    294.47822 
     530    1.0276582     -10502.3    178.40642    294.22215 
     540     1.027919   -10495.419    118.16921    296.19124 
     550    1.0281699   -10488.019    365.43172    291.55934 
     560    1.0283962   -10480.275    541.81114    293.53326 
     570    1.0285848   -10472.004    535.45093    294.32174 
     580    1.0287369   -10463.818    205.69968    303.21617 
     590    1.0288729   -10456.399    51.230794     305.2572 
     600    1.0290048   -10450.374    102.51826    304.41362 
     610    1.0291299   -10445.555    218.70551    302.88899 
     620    1.0292389   -10441.488    366.60735    298.79683 
     630    1.0293228   -10437.982    424.46641    297.66695 
     640    1.0293764   -10434.787    381.42806    301.11077 
     650    1.0294006   -10431.792    456.34654    298.31932 
     660    1.0293926   -10429.233     377.2612    302.01197 
     670     1.029356   -10427.197    299.23212    305.25928 
     680    1.0292957   -10425.554    353.68431    298.76351 
     690    1.0292125   -10424.929    96.674176    308.37261 
     700    1.0291174   -10424.508    301.43389    294.24728 
     710    1.0290036   -10424.456    107.29038    297.16394 
     720    1.0288789   -10424.027    48.302382    299.41472 
     730     1.028749   -10423.584    120.23584    295.31468 
     740    1.0286119    -10423.03   -80.298183    297.52868 
     750    1.0284789   -10422.193   -192.62371    297.93902 
     760    1.0283595   -10421.426   -299.16352    300.58652 
     770    1.0282588   -10420.722   -88.430199    297.35984 
     780    1.0281644   -10420.038    165.63301    294.00443 
     790    1.0280597   -10418.998   -59.498874    301.67572 
     800     1.027957   -10417.847   -155.45703    298.66479 
     810    1.0278659   -10416.942   -194.02627     299.5253 
     820    1.0277856    -10415.74     66.78426    297.13902 
     830    1.0277014   -10414.709    156.88728    301.99534 
     840    1.0276036   -10413.582    270.95322    298.57552 
     850     1.027486   -10412.421    321.51496    292.06262 
     860    1.0273462   -10410.462    9.1212954    296.69439 
     870    1.0272028   -10407.597   -81.552813    296.55752 
     880    1.0270646   -10404.251   -192.22617    301.68973 
     890    1.0269386   -10400.529   -277.80281    302.30721 
     900    1.0268305   -10396.712   -120.69798    296.06788 
     910    1.0267316   -10392.351    -122.0746    298.75468 
     920    1.0266407   -10387.551   -169.44991    304.06432 
     930     1.026561   -10382.811   -117.27063    303.25995 
     940    1.0264882   -10378.244    55.575913    299.80357 
     950    1.0264113   -10373.709     163.8072    298.73299 
     960     1.026324   -10369.185   -130.27364    310.73609 
     970    1.0262408   -10365.408    69.148508    307.11039 
     980    1.0261525   -10362.712    318.10207     299.4647 
     990    1.0260432   -10360.448    4.8788359     309.5617 
    1000    1.0259301   -10359.129   -66.585188    309.28408 
    1010      1.02582    -10358.99    47.213067    302.93382 
    1020    1.0257067   -10359.915    77.611939    302.76165 
    1030     1.025584   -10360.967    289.95351    295.38164 
    1040     1.025442   -10362.464   -16.708718    304.75039 
    1050    1.0252974   -10364.257   -158.37318     300.9679 
    1060    1.0251636   -10366.736   -247.05232    297.20258 
    1070    1.0250474   -10369.384   -463.87594    300.98788 
    1080    1.0249645   -10372.605   -784.84093    302.82377 
    1090    1.0249387   -10376.627   -991.74404    301.37705 
    1100     1.024984   -10381.608    -909.4741    302.92638 
    1110     1.025095   -10387.036   -527.82504    292.57542 
    1120    1.0252495   -10392.574   -428.91321    293.94525 
    1130    1.0254376   -10397.761   -360.18706    293.74889 
    1140    1.0256557   -10402.783   -339.26076     296.8261 
    1150    1.0259017   -10408.105   -294.85656    301.96305 
    1160    1.0261721   -10414.044   -125.43997     300.0059 
    1170    1.0264543   -10420.139    228.41062    292.50331 
    1180    1.0267244     -10425.8    534.22695    290.68028 
    1190    1.0269617   -10430.869    397.83794    297.14905 
    1200    1.0271732    -10436.18    190.77413    303.67693 
    1210    1.0273698   -10441.678    520.14566    291.48608 
    1220    1.0275332   -10446.666    600.00898     291.8422 
    1230    1.0276558   -10451.281    454.30614    297.73677 
    1240    1.0277455   -10455.455    432.86573    290.68649 
    1250    1.0278065   -10459.045    184.92514    292.33101 
    1260    1.0278536   -10462.102    50.588806    297.22554 
    1270    1.0278964   -10464.823    147.34313    290.02087 
    1280    1.0279307   -10466.795    150.45375    285.52679 
    1290    1.0279564   -10467.603   -157.30388    294.61145 
    1300    1.0279911   -10467.922   -129.19936    296.89986 
    1310    1.0280347   -10467.869     211.4103    288.12869 
    1320    1.0280658   -10466.977    208.36081     291.6473 
    1330     1.028082   -10465.048    144.82726    293.42345 
    1340    1.0280876   -10462.239    121.96723    294.79665 
    1350    1.0280823   -10458.457    272.86008    293.95484 
    1360    1.0280566   -10453.275    479.61836    285.21794 
    1370    1.0279982   -10445.847    251.88028    290.46877 
    1380    1.0279209   -10435.763   -176.53555    301.15307 
    1390    1.0278511   -10423.897   -59.030849    296.36441 
    1400     1.027785   -10411.244    171.91923    296.39606 
    1410    1.0277051   -10398.231    293.23621    303.55188 
    1420    1.0275995    -10385.95    584.80538    297.03808 
    1430     1.027452   -10375.463    452.96593    300.03065 
    1440    1.0272674   -10366.508    296.58925    303.48877 
    1450    1.0270557   -10359.487     339.3158    302.27207 
    1460    1.0268146   -10354.508    344.71441    308.51736 
    1470    1.0265417   -10351.265    440.19371     307.1573 
    1480    1.0262309   -10349.686    485.01966    306.02564 
    1490     1.025879    -10349.29    356.79314    306.93478 
    1500    1.0254929   -10350.016     206.7301     309.6703 
    1510    1.0250816   -10351.963    342.11343    305.30947 
    1520    1.0246371   -10354.663    348.46091    303.69814 
    1530    1.0241583   -10357.916    235.67391     303.6976 
    1540     1.023653   -10361.408    17.490617    300.59897 
    1550    1.0231369   -10365.269   -273.17096    303.70935 
    1560    1.0226278   -10369.306   -223.45164    297.51409 
    1570    1.0221263   -10373.187   -312.59618     297.0205 
    1580    1.0216389   -10377.088   -637.27299    304.39531 
    1590    1.0211866   -10381.257   -645.78515     300.3447 
    1600    1.0207745    -10385.82   -714.47892    298.93551 
    1610    1.0204079   -10390.142   -838.56829    294.86025 
    1620    1.0200958   -10394.061    -859.6779     294.8219 
    1630    1.0198398   -10397.527   -705.80483    293.19558 
    1640    1.0196324    -10400.49   -657.82206    294.53782 
    1650    1.0194697   -10403.098   -648.12921    297.23183 
    1660    1.0193507   -10405.341   -492.34158    292.62341 
    1670    1.0192672   -10407.249   -474.86203     293.4237 
    1680    1.0192186   -10408.543    -624.0155    296.18583 
    1690    1.0192147   -10409.756   -738.02755     300.7159 
    1700    1.0192631   -10411.052   -492.99654     293.7942 
    1710    1.0193508    -10412.21    -381.0776    296.00984 
    1720    1.0194682   -10413.188   -303.68661    298.36528 
    1730    1.0196111   -10414.161   -235.67366    294.61715 
    1740    1.0197749   -10414.975   -216.78589    297.46378 
    1750    1.0199554   -10415.536    102.75068    293.21416 
    1760    1.0201337   -10415.838    284.68627    291.31932 
    1770    1.0202959   -10415.231    196.85498    295.81879 
    1780    1.0204469   -10414.493    23.757622    302.84196 
    1790    1.0205975   -10413.593    82.607792     293.2965 
    1800     1.020746   -10412.377    103.20632    292.36567 
    1810    1.0208908   -10410.281   -5.6137188    299.81709 
    1820    1.0210362   -10407.616    144.62139     299.1559 
    1830    1.0211737   -10404.563    425.26812    293.95821 
    1840    1.0212842   -10400.631    429.84183    298.39676 
    1850    1.0213641   -10395.741    473.28515    297.68672 
    1860     1.021411   -10390.368    459.72499    302.29545 
    1870    1.0214229   -10384.405    622.65385    298.17791 
    1880    1.0213912   -10378.266    482.36491     303.1094 
    1890    1.0213228    -10371.79    323.79598    299.33684 
    1900    1.0212315   -10365.593   -82.590905     306.0814 
    1910    1.0211416   -10359.447   -116.65586     299.8298 
    1920    1.0210587   -10353.725     1.100218    297.17315 
    1930    1.0209742    -10347.98    82.423948    301.04436 
    1940     1.020881   -10341.974    189.08789    293.87724 
    1950    1.0207762    -10336.16   -131.09425     302.1875 
    1960    1.0206774   -10330.197   -319.57338     304.7041 
    1970    1.0206002   -10325.207   -390.65876     307.9075 
    1980    1.0205503   -10321.427   -401.69555    308.97069 
    1990    1.0205276   -10318.775   -172.62179    303.30054 
    2000    1.0205188   -10317.084   -64.691806     304.8947 
    2010    1.0205146   -10316.054   -59.836425     303.7598 
    2020     1.020516   -10315.859   -156.17171    303.44163 
    2030    1.0205288   -10316.183   -288.62192    304.68679 
    2040    1.0205638   -10317.597   -427.97431    309.07636 
    2050     1.020629   -10320.142   -320.42779    304.86532 
    2060    1.0207194    -10323.83    -180.9397    300.33298 
    2070    1.0208258   -10328.056   -219.05335    304.08862 
    2080    1.0209482   -10333.475   -110.53719    306.13513 
    2090    1.0210798   -10339.744    242.32055    293.69756 
    2100     1.021199   -10346.093    146.93836    293.27076 
    2110    1.0213093   -10352.158   -47.348999    295.03017 
    2120    1.0214238    -10357.92   -113.48616    291.83007 
    2130    1.0215511   -10363.563   -415.88997    297.55338 
    2140    1.0217096    -10368.93   -562.49474    294.36116 
    2150    1.0219143   -10374.508   -859.18224    300.35509 
    2160    1.0221834   -10380.251   -927.79432    299.29201 
    2170    1.0225248   -10386.565   -827.34331    300.79145 
    2180    1.0229297   -10393.233   -434.72092    297.45532 
    2190    1.0233734   -10399.548   -134.93422    288.64656 
    2200    1.0238359   -10405.184   -249.95701    296.97427 
    2210    1.0243208   -10410.731   -199.66972    301.24606 
    2220    1.0248251   -10416.421     148.0287    293.91787 
    2230    1.0253257   -10421.283    360.30873    289.39776 
    2240    1.0258079   -10425.709    268.14422    299.99166 
    2250    1.0262724   -10429.652    475.19433    295.09105 
    2260    1.0267081   -10433.365    548.69286    292.58625 
    2270    1.0271103   -10436.447    295.73735     296.2155 
    2280    1.0274944     -10439.5    39.350991    303.15737 
    2290    1.0278763   -10442.557    277.79674    292.73065 
    2300    1.0282428   -10445.359    442.58705    293.08268 
    2310    1.0285809   -10447.344    384.24436    294.16161 
    2320     1.028895   -10448.953     171.6413    293.95279 
    2330    1.0291976   -10450.048    160.69878    293.91657 
    2340    1.0294899   -10450.584    343.10963    290.76736 
    2350     1.029762   -10450.597    291.23815     296.3166 
    2360     1.030013   -10450.132    307.89751     297.6921 
    2370    1.0302432   -10449.553    432.70018    292.74049 
    2380    1.0304444   -10448.479    427.13102    297.95429 
    2390    1.0306143   -10447.065    533.78922    300.04113 
    2400    1.0307473   -10445.633    565.07678    299.10342 
    2410    1.0308364   -10443.697    892.62372    293.67703 
    2420    1.0308625   -10440.832    958.23836    293.83874 
    2430    1.0308181   -10435.621    850.46908    290.64951 
    2440    1.0307141   -10428.106    376.16454    307.40193 
    2450    1.0305761   -10417.906    439.70685    300.27212 
    2460    1.0304083   -10407.147    291.46385    305.58054 
    2470    1.0302143   -10395.162    397.68405    300.61198 
    2480    1.0299942   -10383.695    35.235646    307.03548 
    2490    1.0297685    -10373.04   -174.63295    307.17654 
    2500    1.0295528   -10363.951   -168.01995    304.02268 
    2510    1.0293488   -10356.343   -215.63852    309.13098 
    2520    1.0291564    -10350.32    67.049389    307.47227 
    2530    1.0289591    -10345.78    245.50421     301.6131 
    2540     1.028744   -10342.188    174.30741    307.48748 
    2550    1.0285135   -10339.748    199.75954    310.80411 
    2560    1.0282667   -10338.693    216.34209    307.29239 
    2570    1.0280044   -10339.128   0.87948974    310.02768 
    2580    1.0277382   -10340.694   -21.799991     306.8564 
    2590    1.0274728   -10343.619   -19.812716    307.13379 
    2600    1.0272064   -10347.361    43.177224    301.95636 
    2610    1.0269384   -10351.998   -194.72408    303.15125 
    2620    1.0266815   -10356.855   -236.34692    297.62326 
    2630    1.0264417   -10362.116   -365.51569    300.08991 
    2640    1.0262268    -10367.16   -458.56271    295.73892 
    2650    1.0260453   -10372.394   -611.01585    301.81865 
    2660    1.0259059   -10377.868   -547.53375    300.07648 
    2670    1.0258071   -10383.495   -568.49258    298.40531 
    2680    1.0257484   -10389.418     -453.761    300.62011 
    2690    1.0257219   -10395.222   -223.36259    298.87087 
    2700    1.0257116   -10401.379    29.506934    299.99861 
    2710    1.0256997   -10407.233    236.83401    293.69445 
    2720    1.0256726   -10412.806    94.839815    299.02988 
    2730    1.0256374   -10418.105    25.642885     300.1838 
    2740    1.0256003   -10423.591   -67.589817     301.4618 
    2750    1.0255662   -10429.136    75.078579    299.04018 
    2760    1.0255246   -10434.467    386.89329    295.31444 
    2770     1.025456   -10439.242    470.62531    294.11139 
    2780    1.0253545   -10443.608    237.20163    300.32355 
    2790    1.0252327   -10447.714    245.09311    297.86176 
    2800    1.0250922   -10451.842    244.99485    300.54556 
    2810    1.0249325   -10455.909    258.94055    299.19903 
    2820    1.0247538    -10459.93    125.41853    299.48052 
    2830    1.0245654   -10464.173   -57.628615     303.7874 
    2840    1.0243776   -10468.247    94.794813    292.03232 
    2850    1.0241857   -10471.847   -213.31669     294.9076 
    2860    1.0240083   -10474.781   -569.76354    296.62473 
    2870    1.0238702   -10477.002   -626.14869    290.32728 
    2880    1.0237805   -10478.793   -991.23649     300.2681 
    2890     1.023761   -10480.445   -1090.8859    300.72662 
    2900    1.0238208   -10482.187   -967.45851    293.24598 
    2910     1.023954   -10483.714   -951.35829      295.224 
    2920    1.0241558   -10484.545   -706.98525    291.72477 
    2930    1.0244135   -10484.902    -676.7413    292.72689 
    2940    1.0247229   -10484.709   -706.37362    295.11374 
    2950    1.0250846   -10483.831   -547.95041    290.13293 
    2960    1.0254902   -10482.403   -437.79489    292.13399 
    2970    1.0259303   -10480.198   -337.42432    295.34361 
    2980    1.0263964    -10477.55   -112.55835    294.55104 
    2990    1.0268741   -10474.501    39.965749    294.88255 
    3000    1.0273514   -10471.014    178.29289    297.86645 
    3010    1.0278167   -10467.219    494.95486    298.22975 
    3020    1.0282486   -10463.226    694.71751    298.00805 
    3030    1.0286336   -10459.317    590.09813    304.52103 
    3040    1.0289749   -10455.322    630.29215    301.08631 
    3050    1.0292728   -10451.778    609.26366    302.77378 
    3060    1.0295255   -10447.851    747.09483    297.56201 
    3070     1.029728   -10443.674    438.50901    306.24594 
    3080    1.0298977    -10439.37    220.40574    310.28977 
    3090    1.0300483   -10434.952    527.19566    296.76425 
    3100     1.030165   -10429.945    366.70376    306.91324 
    3110    1.0302536    -10423.55    236.12853    308.08784 
    3120     1.030327   -10416.975    39.978068    308.30233 
    3130    1.0303959   -10409.763    101.73225    303.81338 
    3140    1.0304573   -10402.186    224.78429    306.92606 
    3150     1.030501   -10394.123    425.06839    302.04201 
    3160    1.0305163   -10386.388    335.92709     312.5529 
    3170    1.0305036   -10379.148    598.80332     309.0433 
    3180    1.0304481   -10373.341    725.63557      307.731 
    3190    1.0303404   -10368.514    656.25116    307.95242 
    3200    1.0301837   -10364.936     520.4189    315.46302 
    3210    1.0299855   -10363.357    626.58767    315.23383 
    3220    1.0297399   -10363.643    794.39389    306.42788 
    3230    1.0294382   -10365.405    429.89819    312.58851 
    3240    1.0291037   -10369.006   -27.383355    315.87018 
    3250    1.0287661   -10374.691    55.587123    309.30541 
    3260    1.0284228       -10382    208.88341    304.53613 
    3270    1.0280652   -10390.209   -12.116525    306.21022 
    3280    1.0277079   -10399.443   -411.49275    308.74069 
    3290    1.0273779   -10409.503   -546.54382    306.25407 
    3300    1.0270849   -10419.674   -438.88268    299.15661 
    3310    1.0268246   -10428.966   -470.84865    294.91578 
    3320     1.026598   -10436.765   -599.35303     295.3278 
    3330     1.026414   -10443.333   -643.43514    295.36612 
    3340    1.0262761   -10448.688   -632.33622    292.85707 
    3350    1.0261856   -10452.918   -818.63286    293.31138 
    3360    1.0261536    -10456.06   -798.65104    293.24136 
    3370    1.0261795   -10458.699   -601.01683    296.65774 
    3380    1.0262485    -10460.58   -231.35715    287.72388 
    3390    1.0263378   -10461.419   -212.53505    287.94688 
    3400    1.0264452   -10461.236   -457.35541    294.60412 
    3410    1.0265853   -10460.425   -513.13665     296.2331 
    3420    1.0267631   -10459.439   -418.79171    296.04918 
    3430    1.0269728   -10458.544   -277.10164     299.9873 
    3440    1.0272019   -10457.476    40.472896    296.13425 
    3450    1.0274316   -10456.464    113.19903    298.15253 
    3460     1.027654   -10455.316    198.58527    297.39152 
    3470    1.0278634   -10454.097    217.40041    298.05221 
    3480    1.0280587   -10452.836    143.34449    297.66061 
    3490     1.028245   -10451.426    101.67152    294.49388 
    3500    1.0284259   -10449.668   -110.54376     302.0002 
    3510    1.0286155   -10448.293   -241.66216    305.02972 
    3520    1.0288225   -10447.335   -110.96982     298.6666 
    3530    1.0290401   -10446.661   -120.89657    302.04076 
    3540    1.0292682    -10446.45   -191.78554    307.26495 
    3550    1.0295096   -10447.282    51.375491     302.6125 
    3560    1.0297497   -10448.632    230.90227    297.15776 
    3570    1.0299776   -10450.758    -92.29304    309.23762 
    3580    1.0302103   -10453.758    -33.76995     300.7626 
    3590    1.0304487   -10458.371   -27.684751    306.55839 
    3600    1.0306871   -10464.104    406.56132    297.83982 
    3610    1.0308994   -10470.935    577.67158    296.87671 
    3620    1.0310725   -10478.747    335.42219    304.24594 
    3630    1.0312191   -10487.699    415.62187     296.9247 
    3640    1.0313382   -10497.092    404.53903    293.26811 
    3650    1.0314306   -10506.637  0.043757145    301.08469 
    3660    1.0315216   -10516.466   -216.83732    300.24769 
    3670    1.0316284   -10525.957   -270.01577    295.41488 
    3680    1.0317578   -10534.929   -465.19462    299.68272 
    3690    1.0319204     -10543.1   -420.82662     298.4791 
    3700    1.0321131   -10550.245   -48.819404    290.06121 
    3710    1.0323114   -10555.615     243.5059    288.85936 
    3720    1.0324951   -10559.478    139.90015    295.57966 
    3730    1.0326697    -10562.49    44.392078    293.48625 
    3740    1.0328423   -10564.537    30.408988    289.24243 
    3750    1.0330148   -10565.567   -54.289104    291.86969 
    3760    1.0331902   -10565.724    130.66511    291.02424 
    3770    1.0333571   -10565.089    368.01334    288.64099 
    3780    1.0334994   -10563.591    442.91027    290.79861 
    3790    1.0336083   -10561.176    722.80438    285.40617 
    3800     1.033668   -10557.631    566.75765    286.83409 
    3810     1.033687   -10553.233    149.74801      299.295 
    3820    1.0336927   -10548.698    4.0489897       298.59 
    3830    1.0336969   -10544.546    96.247416    294.90663 
    3840    1.0336952   -10540.482    169.25631    295.55935 
    3850    1.0336797   -10536.166    277.05072    294.81354 
    3860    1.0336458   -10531.808    135.37497    296.99947 
    3870    1.0336013   -10527.613   -30.268305    305.30737 
    3880     1.033557   -10524.115    35.494182    303.89615 
    3890    1.0335108   -10521.809    41.043319    305.30173 
    3900    1.0334605   -10520.358    45.245884    307.75315 
    3910    1.0334055   -10520.095     153.1718      305.678 
    3920    1.0333398   -10520.778    153.48355    302.65449 
    3930    1.0332629   -10522.015    45.034431    303.96535 
    3940    1.0331807   -10524.151    156.49995     306.2974 
    3950    1.0330843   -10526.713    462.16196    295.95001 
    3960    1.0329564   -10529.621    358.62278     300.2332 
    3970    1.0327979   -10532.463    536.95138    297.56675 
    3980    1.0325986   -10535.212    736.35732      290.916 
    3990    1.0323467   -10537.427     436.1581     295.2964 
    4000    1.0320592   -10539.258    154.26171     299.0723 
    4010    1.0317573   -10541.209   -23.250041    299.90723 
    4020    1.0314546   -10543.418   -215.84029    299.61737 
    4030    1.0311649   -10546.106   -333.95692    300.87666 
    4040    1.0308957   -10549.088   -265.23069    297.53659 
    4050    1.0306449   -10552.765   -329.71008    302.27969 
    4060    1.0304121   -10557.207    102.23158    293.60299 
    4070    1.0301717    -10561.93     299.0266    289.63142 
    4080    1.0299108   -10566.774   -145.21289    295.36826 
    4090    1.0296593   -10572.334   -776.26943    300.37022 
    4100    1.0294598   -10579.356    -1003.186    298.53704 
    4110    1.0293321   -10588.483   -962.31515    297.24164 
    4120    1.0292731   -10598.837   -798.32976    286.81857 
    4130    1.0292768   -10609.879   -1082.7032    291.42128 
    4140    1.0293583   -10621.118   -1178.6776    293.49351 
    4150    1.0295274   -10632.336   -1018.6009    288.13918 
    4160    1.0297724    -10641.62   -696.58789    280.73705 
    4170    1.0300724   -10649.275   -589.85873    289.90663 
    4180    1.0304175   -10655.237   -263.63569    285.41587 
    4190    1.0307864   -10658.957    2.4087964    279.12803 
    4200    1.0311625   -10661.315   -136.85681    295.60118 
    4210    1.0315468   -10662.271    300.35759    288.91572 
    4220    1.0319141   -10662.646    673.87868    288.94548 
    4230    1.0322365   -10661.759    763.85736    289.48589 
    4240    1.0325077    -10660.15    564.89863    296.32246 
    4250    1.0327382   -10658.292     552.6747    297.67173 
    4260    1.0329307   -10656.376     475.9129    295.83234 
    4270    1.0330899   -10654.257    423.18762    293.52133 
    4280     1.033219   -10651.664    516.64304    291.02412 
    4290    1.0333125   -10648.511    471.69144    292.37644 
    4300    1.0333715   -10644.418    447.24424    289.72172 
    4310    1.0333995   -10639.852    295.14525    296.72368 
    4320    1.0334036   -10634.552    386.23665      293.657 
    4330    1.0333812   -10629.319    277.31466    299.55387 
    4340    1.0333377   -10623.935    174.53508    298.95804 
    4350    1.0332813   -10619.063    19.393165    303.72026 
    4360    1.0332214   -10614.594    22.990998    301.05207 
    4370    1.0331605   -10611.067   -134.20015    308.16797 
    4380    1.0331054   -10608.375    107.60767    299.28489 
    4390    1.0330425   -10606.009    297.41776    293.80253 
    4400    1.0329604   -10603.804    97.100911     302.7722 
    4410    1.0328666   -10601.504    297.15812    293.20085 
    4420    1.0327507   -10599.102    417.05576    290.57841 
    4430    1.0326032    -10595.88    398.54173    289.34413 
    4440    1.0324258   -10591.884    215.68511    293.51145 
    4450    1.0322295   -10587.203    118.20093    292.20584 
    4460    1.0320233   -10582.162   -3.4637095    292.30069 
    4470    1.0318135   -10576.637   -9.3815708    294.22439 
    4480    1.0316024   -10571.141   -52.022247    296.64808 
    4490    1.0313926   -10565.687   -123.27114    294.51402 
    4500    1.0311909   -10560.716   -295.44908    296.27409 
    4510    1.0310081   -10556.153   -401.91685    298.10163 
    4520    1.0308525   -10552.389   -373.11135    294.66064 
    4530    1.0307208   -10548.938   -111.06508    287.27928 
    4540    1.0305974   -10545.668   -22.428365    293.58254 
    4550    1.0304727   -10542.533    73.743126    292.83335 
    4560    1.0303429   -10539.595    53.030188    286.99063 
    4570    1.0302091   -10536.578   -187.62409    297.23713 
    4580    1.0300843    -10533.77   -59.480038     295.7643 
    4590    1.0299623   -10531.264    115.88389    292.19124 
    4600    1.0298317   -10528.548    -23.56142    295.29068 
    4610    1.0297016   -10525.628   -211.35836    294.42672 
    4620     1.029587   -10522.869   -526.56486    304.60463 
    4630    1.0295058   -10520.747   -333.88838    302.75661 
    4640    1.0294469   -10519.006     68.74835    293.03145 
    4650    1.0293866   -10517.467     -126.434    302.05133 
    4660    1.0293318   -10515.789   -33.087454    296.18544 
    4670     1.029279   -10514.162    178.21927    293.38299 
    4680    1.0292117   -10512.089    445.84906    291.75363 
    4690     1.029111   -10509.172    588.07043    287.19687 
    4700    1.0289692   -10505.175     230.2021    290.98989 
    4710    1.0288087   -10500.126   -170.68444    294.96784 
    4720    1.0286568   -10494.457   -359.94804    297.68807 
    4730    1.0285297   -10488.764   -508.19789    300.40415 
    4740    1.0284384   -10483.243   -609.58043    300.87791 
    4750    1.0283902   -10478.265   -602.04688     307.0908 
    4760    1.0283835   -10473.979   -251.63974    300.48043 
    4770    1.0283981   -10470.478   -183.78626    304.04253 
    4780    1.0284259   -10467.581   -90.867661     303.7814 
    4790    1.0284598   -10465.167    128.06654    297.87766 
    4800    1.0284871   -10463.232     52.89627    304.49453 
    4810    1.0285084   -10461.583    259.78636    301.40045 
    4820    1.0285117   -10460.538    356.21547    305.57428 
    4830    1.0284894   -10460.425    252.38647    308.47694 
    4840    1.0284474   -10461.346    156.98102    305.54739 
    4850    1.0283937   -10463.568    18.251516    308.85929 
    4860    1.0283358   -10467.038    176.48875    305.38251 
    4870    1.0282644   -10471.982     262.6506    306.71969 
    4880    1.0281703   -10477.885    602.13205    295.36947 
    4890     1.028035   -10484.036    351.32974    297.40885 
    4900    1.0278716   -10490.436   -46.804643    299.61452 
    4910    1.0277097   -10497.435   -327.22122    302.18755 
    4920    1.0275677   -10505.083   -369.53463    301.94385 
    4930    1.0274509   -10513.359    -314.2911    296.79436 
    4940    1.0273562   -10521.059   -377.99011    290.18486 
    4950    1.0272895   -10528.334   -568.96657    297.31192 
    4960    1.0272594   -10534.374   -217.62762    286.48499 
    4970    1.0272494   -10539.509   -250.42688    291.64975 
    4980     1.027256   -10543.234    -115.0753    288.48965 
    4990    1.0272722   -10545.946   -46.512033    288.40765 
    5000    1.0272922   -10547.198   -40.589291    285.52828 
    5010    1.0273176   -10547.204   -288.98001    291.69605 
    5020     1.027363   -10546.416   -373.54078    292.50204 
    5030     1.027438   -10544.838   -592.75119    289.08849 
    5040    1.0275596    -10542.57   -920.83942    292.41439 
    5050    1.0277503    -10539.71   -1034.2105    294.59246 
    5060    1.0280193   -10536.446   -955.30836    293.25634 
    5070    1.0283639   -10533.335   -828.44759    299.24763 
    5080    1.0287716   -10529.917   -439.85397     295.3174 
    5090     1.029219   -10526.778   -124.82622    296.76264 
    5100    1.0296827   -10523.502    98.988416    295.57491 
    5110    1.0301455   -10520.321    340.41399    298.04463 
    5120    1.0305883   -10517.313    698.82944     299.2502 
    5130    1.0309857   -10514.732    896.71205    299.22728 
    5140    1.0313233   -10512.475    955.65668    293.65417 
    5150    1.0315963   -10510.036    755.55952    297.88343 
    5160     1.031817   -10508.406    504.01844    311.05641 
    5170    1.0319983   -10507.427    887.30802     292.9445 
    5180    1.0321222   -10506.877    620.80759    297.62439 
    5190     1.032202   -10506.252    177.07554     303.9584 
    5200     1.032268    -10506.14    10.900857    302.39957 
    5210    1.0323333   -10506.705    65.666217    301.39262 
    5220    1.0323936   -10507.493    242.97423    299.95443 
    5230    1.0324352   -10508.513    489.36318    300.48993 
    5240    1.0324408   -10509.233    727.66956     293.2893 
    5250    1.0323962   -10509.932    523.59795    301.41367 
    5260    1.0323099    -10510.51    534.66791    297.69195 
    5270    1.0321836   -10510.996    538.75286    292.84606 
    5280    1.0320183   -10511.047    229.07396    297.40092 
    5290    1.0318325   -10510.965    102.44564    300.77846 
    5300    1.0316346    -10511.23    289.19367    299.03922 
    5310    1.0314132   -10511.381    361.05292     294.6933 
    5320    1.0311646   -10511.505    134.72223    300.25952 
    5330    1.0309012   -10511.705    135.98978     300.4766 
    5340     1.030622   -10512.024    424.67912    294.73323 
    5350    1.0303112   -10512.309    383.65605    294.32577 
    5360    1.0299687   -10511.944    217.70444    294.75174 
    5370    1.0296056   -10511.297    138.57845    298.53721 
    5380    1.0292269   -10510.717    212.46894    301.07634 
    5390    1.0288282   -10510.307    239.71026    299.52709 
    5400    1.0284102   -10510.416   -68.801986    305.85985 
    5410    1.0279896   -10510.912   -3.3637899    298.75015 
    5420    1.0275654   -10512.095    116.78249    300.93652 
    5430    1.0271272   -10513.385    173.18245    298.14893 
    5440    1.0266735   -10514.796    50.020248    294.22879 
    5450    1.0262108   -10515.904    73.568877    290.90395 
    5460    1.0257388   -10516.361    9.4802997    292.23066 
    5470    1.0252623   -10516.097   -229.76884    295.17637 
    5480    1.0247975   -10515.252   -324.37181    292.08145 
    5490    1.0243527   -10513.699   -434.45612    294.63123 
    5500    1.0239348   -10511.229    -361.7349    290.91452 
    5510    1.0235409   -10507.583   -380.43608      294.262 
    5520    1.0231708   -10502.802    -302.4381    298.75306 
    5530    1.0228185   -10497.133   -61.411672    295.82563 
    5540    1.0224688   -10490.374    6.4917444    294.01269 
    5550     1.022117   -10482.315   -77.618193    297.01204 
    5560    1.0217676   -10473.184   -159.68194    301.62664 
    5570    1.0214269   -10463.557   -193.57213    299.98846 
    5580    1.0210987   -10454.208   -299.83041    307.31632 
    5590    1.0207875    -10445.56    -96.65633    303.16602 
    5600     1.020482   -10437.954    54.761868    298.23634 
    5610    1.0201713    -10430.98      9.32446    302.76216 
    5620    1.0198554   -10424.515    238.74045    293.71246 
    5630    1.0195228   -10418.546    51.489965    299.39107 
    5640    1.0191825   -10412.684   -37.085904    299.37202 
    5650    1.0188425   -10407.464   -30.886878    296.52499 
    5660    1.0185036   -10402.524   -201.19304    300.21147 
    5670    1.0181779   -10398.147   -458.03072    303.71951 
    5680    1.0178826   -10394.441   -583.21639    302.61475 
    5690    1.0176291   -10391.959   -682.41105    307.51642 
    5700    1.0174203   -10389.959   -347.77591    295.52982 
    5710    1.0172407   -10388.949   -461.02756    307.01478 
    5720    1.0170908   -10388.069   -394.83296    301.10306 
    5730    1.0169729   -10388.275   -725.04903    306.59975 
    5740    1.0169049   -10388.975    -798.3748    304.65592 
    5750    1.0168949   -10390.584   -662.87761     303.0437 
    5760    1.0169353   -10393.188   -645.48604    308.88236 
    5770    1.0170213   -10396.414   -421.10193    297.18674 
    5780    1.0171427    -10400.06   -560.16767    301.28731 
    5790    1.0173046   -10403.835   -638.69992    302.23317 
    5800    1.0175162   -10408.259   -749.56403    302.14356 
    5810    1.0177837   -10413.114   -745.16836    302.81536 
    5820    1.0181069   -10418.557   -544.97025    300.64791 
    5830    1.0184734   -10424.251   -428.55499    299.24237 
    5840    1.0188726   -10429.919   -120.30502    295.83989 
    5850    1.0192845   -10435.378    131.46371    297.11686 
    5860    1.0196887   -10440.413    374.71465    296.89999 
    5870    1.0200674    -10444.93    640.40534    292.60456 
    5880    1.0204061   -10449.096    366.35606    300.80439 
    5890     1.020718   -10453.428     212.8511    306.29227 
    5900    1.0210125   -10458.053    581.95901    293.93817 
    5910    1.0212685   -10462.072    709.01242    293.57935 
    5920    1.0214747   -10465.617    583.57238    301.00396 
    5930    1.0216377   -10468.626    615.81517    294.63921 
    5940    1.0217587   -10471.319    379.59238    297.71558 
    5950    1.0218514    -10473.59    260.32474    297.92862 
    5960    1.0219236    -10475.35    358.41221     293.6257 
    5970    1.0219705   -10476.378     409.5892    290.47916 
    5980    1.0219905   -10476.845    85.954027    300.03263 
    5990    1.0220019   -10476.965   -24.599867    296.53091 
    6000    1.0220157   -10477.032   -40.868701    293.66799 
    6010    1.0220328   -10476.825   -58.347552    295.82021 
    6020    1.0220526   -10476.061    72.364277    289.88677 
    6030    1.0220691   -10474.882   -7.8586331    292.71865 
    6040    1.0220862   -10473.286   -68.971372    294.68338 
    6050    1.0221084   -10471.456   -175.41263    295.57512 
    6060    1.0221449   -10469.902   -367.36675    300.51288 
    6070    1.0222047   -10468.331   -106.35216    294.28465 
    6080    1.0222741    -10466.83    85.781308    291.71189 
    6090    1.0223395   -10464.634    8.4219941    290.70608 
    6100    1.0224059     -10461.9    -177.9428    294.59244 
    6110    1.0224849   -10458.775   -251.35228    297.76733 
    6120    1.0225819   -10455.877   -263.85143    302.84079 
    6130     1.022697   -10453.376   -6.6042249     295.1128 
    6140    1.0228151   -10450.673    45.560537    294.30727 
    6150    1.0229332   -10448.126   -211.99539    307.57233 
    6160    1.0230629   -10445.832    56.811751    298.59746 
    6170     1.023192   -10444.186    98.135729      301.802 
    6180     1.023315   -10442.965    15.014283    305.04286 
    6190    1.0234367   -10442.229    64.605111    299.27774 
    6200    1.0235552   -10442.166    111.27528    302.58613 
    6210    1.0236635   -10442.216    482.03425     298.5605 
    6220    1.0237381   -10442.627    714.04699      297.871 
    6230    1.0237614   -10442.677    727.07061    292.98255 
    6240    1.0237339   -10442.817    338.88118    304.45637 
    6250     1.023678   -10442.996    298.80864    299.63001 
    6260    1.0236016   -10443.922    122.42236     302.9955 
    6270    1.0235149   -10445.289    30.107169    301.83271 
    6280    1.0234251   -10447.427    7.1812364    300.49722 
    6290     1.023335   -10449.954   -87.597892     297.1468 
    6300    1.0232513   -10452.823   -219.11985    296.85145 
    6310    1.0231831   -10456.043   -244.80196     296.1918 
    6320    1.0231309   -10459.267   -124.58322    295.14072 
    6330     1.023089     -10463.3   -117.86441    301.91642 
    6340    1.0230523    -10467.64     193.1779    293.03371 
    6350    1.0230041   -10472.665    117.87254    297.54394 
    6360    1.0229445   -10478.117    220.69879    296.79904 
    6370     1.022869   -10484.077    242.92228     295.1029 
    6380    1.0227751   -10490.263    268.72186    292.24267 
    6390    1.0226622   -10496.731    193.28488     296.1032 
    6400    1.0225323   -10503.027    269.74464    290.38456 
    6410    1.0223849   -10509.205   -22.699978    293.49547 
    6420    1.0222375     -10515.1   -294.26521    294.34061 
    6430    1.0221105   -10520.683   -506.36805    294.78454 
    6440    1.0220195    -10526.29   -636.97259    296.82409 
    6450    1.0219736   -10531.661     -412.141    289.36933 
    6460    1.0219592   -10536.291   -316.98884    287.87237 
    6470    1.0219673   -10539.822   -224.65432    288.93529 
    6480    1.0219907    -10542.43    23.800091    285.20143 
    6490    1.0220145   -10543.488    45.196807    281.01375 
    6500    1.0220375   -10542.928   -286.77057    289.84018 
    6510     1.022079   -10541.272    -272.0832    293.66742 
    6520    1.0221395   -10538.575   -119.36198    290.73598 
    6530    1.0222114   -10535.208   -131.23665     292.3107 
    6540    1.0222935   -10530.599   -131.85808    289.60523 
    6550    1.0223863   -10524.731   -203.85851    293.12436 
    6560    1.0224945   -10517.611   -223.13043    293.52174 
    6570    1.0226194   -10509.353   -218.39374    295.65565 
    6580    1.0227616   -10500.313   -96.696293    291.20245 
    6590    1.0229128   -10490.441   -111.24546    295.42941 
    6600     1.023072   -10480.011   -13.420757    293.99786 
    6610    1.0232347   -10470.001   -13.287701    298.40259 
    6620    1.0233986   -10460.448    19.466715    297.01229 
    6630    1.0235652   -10452.514   -223.66651    305.34514 
    6640    1.0237475   -10446.126    -223.1708    301.04537 
    6650    1.0239484   -10441.545   -246.20429    302.60509 
    6660    1.0241673       -10438   -76.975766    297.10256 
    6670    1.0243954   -10435.125   -40.975542    294.13991 
    6680    1.0246301   -10432.595   -247.94403    302.03279 
    6690     1.024882   -10430.596    -216.9411    304.51915 
    6700    1.0251518   -10429.632   -90.933073    300.66928 
    6710    1.0254322   -10428.924   -191.73055    300.05426 
    6720    1.0257311    -10429.28   -561.65681    314.40994 
    6730    1.0260685   -10430.355   -279.33464    300.50559 
    6740    1.0264318   -10432.699    -158.8074    307.33192 
    6750    1.0268045   -10435.371    396.62642     301.9013 
    6760    1.0271513   -10438.521    818.47562    298.50863 
    6770    1.0274437   -10441.521    688.17485    298.42465 
    6780      1.02769    -10444.81    200.26226    303.78922 
    6790    1.0279203   -10448.244    69.934917    301.97828 
    6800    1.0281482   -10452.882    -125.3225    311.43666 
    6810    1.0283829   -10458.025    152.12919    297.82496 
    6820    1.0286109   -10463.652    209.00992    299.48653 
    6830    1.0288249   -10469.188    198.22445    300.87678 
    6840    1.0290249   -10474.667    210.07442     298.6133 
    6850      1.02921   -10480.573    358.59349    301.19643 
    6860    1.0293669   -10485.604    814.51399    286.45692 
    6870    1.0294694   -10490.121    762.28502    296.01919 
    6880    1.0295133   -10493.469    897.79897    292.00702 
    6890    1.0294928   -10496.574    854.26364    296.35257 
    6900    1.0294077   -10499.051    884.40832     293.5425 
    6910    1.0292587   -10501.078    673.10479    296.29546 
    6920      1.02906   -10503.022     357.8555    301.47799 
    6930    1.0288306   -10504.946       426.99    295.48284 
    6940    1.0285696   -10506.881    349.43335    299.51724 
    6950    1.0282801   -10508.887     276.6323    303.85007 
    6960    1.0279684   -10511.537    230.00868     300.1816 
    6970    1.0276381    -10514.33    183.12618    294.27483 
    6980    1.0272921   -10516.944    162.25159    295.51234 
    6990    1.0269319   -10519.166    133.80662    293.50639 
    7000    1.0265606   -10520.959     3.563242    292.04342 
    7010    1.0261863   -10522.062   -28.446816    289.23169 
    7020    1.0258131   -10522.162    -202.9368    289.30054 
    7030    1.0254537   -10521.334   -498.30255     292.9186 
    7040    1.0251278   -10519.336   -608.15676     288.5069 
    7050    1.0248468   -10516.278   -865.86657    293.77847 
    7060     1.024626   -10511.636   -882.59716    290.08936 
    7070    1.0244699   -10505.126   -886.37663    290.70283 
    7080    1.0243779   -10496.257   -812.36417    296.35868 
    7090    1.0243445   -10484.826   -691.90048     295.3697 
    7100     1.024363   -10471.569   -676.34264    299.36923 
    7110    1.0244313   -10457.084   -683.28223    300.45887 
    7120    1.0245521    -10443.16   -823.62873    307.00526 
    7130    1.0247319   -10430.997   -639.26093    307.16951 
    7140    1.0249599   -10421.836   -287.16266    307.36085 
    7150    1.0252088   -10414.837    182.16172    300.24726 
    7160     1.025451   -10409.892    46.059209    306.88699 
    7170    1.0256894   -10406.191   -37.646311     306.3742 
    7180     1.025934   -10404.522   -294.82578    315.61874 
    7190    1.0261984   -10404.565   -157.93992    308.77969 
    7200     1.026477   -10405.992    59.710028    302.47038 
    7210    1.0267542   -10407.785    74.873887    302.42452 
    7220    1.0270293   -10410.258   -154.69246    306.69465 
    7230    1.0273152   -10413.016   -101.19302    296.78576 
    7240    1.0276133   -10415.992   -300.36557    303.63172 
    7250    1.0279331   -10419.467     -250.981    305.81957 
    7260    1.0282722   -10423.231    5.8035927    298.13778 
    7270    1.0286151    -10427.59   -27.875761    305.10859 
    7280    1.0289595   -10431.987    204.31155    299.46568 
    7290    1.0292925   -10436.989    289.90666    303.44938 
    7300    1.0296047   -10442.019    490.63259    298.23717 
    7310    1.0298851   -10447.217    331.61047     302.7515 
    7320    1.0301417   -10452.898    274.25689    303.67654 
    7330    1.0303781   -10458.515    448.88464    295.83263 
    7340    1.0305856   -10464.366    286.63621    303.29961 
    7350    1.0307727   -10469.921    100.86881    299.13202 
    7360    1.0309551   -10475.895   -239.14039    305.64051 
    7370    1.0311526   -10482.232   -93.536413    301.66989 
    7380    1.0313574   -10488.188     213.6218    293.36088 
    7390    1.0315498   -10493.727    206.63511    302.24137 
    7400    1.0317266   -10498.823    282.48804     298.6489 
    7410    1.0318863   -10503.942    123.95452    302.44536 
    7420    1.0320353   -10508.801    163.77707    301.37628 
    7430    1.0321744   -10513.841    92.829257     300.9379 
    7440    1.0323068   -10518.359    81.815694    293.98303 
    7450    1.0324352   -10521.886    -95.14944    293.58121 
    7460    1.0325739   -10525.166   -547.70947    303.51926 
    7470    1.0327502   -10527.923   -529.10453    294.68781 
    7480    1.0329671   -10530.592    -430.0222    297.86572 
    7490    1.0332171   -10532.696   -288.51009    294.89041 
    7500    1.0334909   -10534.338   -322.15963    297.27869 
    7510    1.0337885    -10535.86    -168.4529    297.62103 
    7520    1.0340992   -10536.873    176.33577    290.34194 
    7530    1.0344012   -10537.278    240.92211    292.79609 
[...]
  496990    1.0219045   -10519.753   -540.40301    293.86965 
  497000     1.021626    -10523.64   -849.38976    296.14392 
  497010    1.0214067   -10526.908   -899.97135    296.48375 
  497020     1.021251   -10529.402   -691.05981    288.62426 
  497030    1.0211503   -10531.391   -975.42961    297.68495 
  497040    1.0211187   -10532.583   -1115.4085    294.78398 
  497050    1.0211708   -10534.051   -1254.2617    299.44515 
  497060    1.0213108   -10534.957   -839.55294     290.8265 
  497070    1.0215158   -10535.692   -585.59825    292.73314 
  497080     1.021763   -10535.341   -200.25896    285.04757 
  497090    1.0220286   -10533.731   -115.16001    286.18096 
  497100    1.0223048   -10530.882   -211.69697     295.3552 
  497110    1.0225968   -10527.369    -232.9755    296.47853 
  497120    1.0229071   -10523.578   -229.70596    296.69136 
  497130    1.0232356    -10519.41   -186.99943    295.84995 
  497140    1.0235816   -10515.256   -443.67436    304.48858 
  497150    1.0239597   -10511.255   -533.01689    305.05134 
  497160    1.0243775   -10508.176    -329.2533    302.53223 
  497170    1.0248212   -10505.577   -119.90504    303.68642 
  497180    1.0252767   -10503.409   -168.04884    305.68583 
  497190    1.0257476   -10502.438   -323.75193    308.31603 
  497200    1.0262399   -10502.031   -5.0769681    296.88687 
  497210    1.0267364   -10502.111    130.00548    301.53656 
  497220    1.0272242   -10502.438    212.52329    304.31191 
  497230    1.0276988   -10503.539    210.95879    300.46058 
  497240    1.0281593   -10504.884    230.37144    295.78389 
  497250    1.0286036   -10506.415    285.55796    300.36194 
  497260     1.029027   -10508.351    412.65268    301.49561 
  497270    1.0294209   -10510.757    499.40641    296.19538 
  497280    1.0297796   -10513.461    495.06657    297.39267 
  497290    1.0301016   -10516.655    560.02759    304.53708 
  497300    1.0303826   -10521.299    593.23555    309.00626 
  497310    1.0306199   -10527.736    677.44069    302.40184 
  497320    1.0308082   -10535.703    700.52053    301.93176 
  497330    1.0309458   -10545.394    613.69634    308.19842 
  497340    1.0310372   -10556.637     682.4553    303.36097 
  497350    1.0310801   -10568.903    621.93298    302.28468 
  497360    1.0310776   -10581.092    475.25356    299.85381 
  497370    1.0310412   -10592.193     169.0963    298.40864 
  497380    1.0309913   -10602.218   -7.9014424    302.45707 
  497390     1.030939   -10610.763    223.14777    295.92958 
  497400    1.0308721   -10617.714    303.86101    291.63516 
  497410     1.030784     -10622.7    193.26202    290.70793 
  497420    1.0306814   -10626.218    60.286281    293.21606 
  497430    1.0305736    -10628.79   -2.4990977    293.38183 
  497440     1.030464   -10630.234    158.93927    285.98472 
  497450    1.0303439   -10630.528    194.25945    287.65258 
  497460    1.0302087   -10629.589    234.09541    288.60806 
  497470    1.0300568   -10627.591    188.86431    288.69719 
  497480    1.0298918   -10624.801    39.064389    291.53603 
  497490    1.0297209   -10620.935    187.34414    282.55124 
  497500    1.0295384   -10616.089    22.163386     288.8945 
  497510    1.0293528   -10609.687   -140.95094    288.09666 
  497520    1.0291799   -10602.887   -460.24462    293.53552 
  497530    1.0290382   -10595.276   -483.07146    289.23504 
  497540    1.0289321   -10587.527   -450.51813    293.58135 
  497550    1.0288577   -10579.629   -240.78462    290.67725 
  497560    1.0288023   -10571.577   -235.89273    287.57291 
  497570    1.0287672   -10563.626   -590.99022    300.04181 
  497580    1.0287708   -10555.999    -451.6568    295.97984 
  497590    1.0288089   -10549.356   -273.24738    292.99596 
  497600    1.0288674   -10543.232   -120.68443    297.50866 
  497610    1.0289334   -10537.366    191.00288    289.06662 
  497620    1.0289888   -10531.583    79.392635    289.70608 
  497630    1.0290398   -10525.581   -265.78619    295.67674 
  497640    1.0291092   -10519.584   -439.60952    296.87925 
  497650    1.0292123   -10514.452   -620.76731    302.46783 
  497660    1.0293593   -10509.853   -459.78899    294.14767 
  497670    1.0295413   -10505.759   -364.14891    297.55884 
  497680    1.0297482   -10501.371   -53.612459    292.05391 
  497690    1.0299624   -10497.211    35.741827    297.87654 
  497700    1.0301746   -10492.969    106.90244    298.23279 
  497710    1.0303786   -10488.863    320.56955    292.38526 
  497720     1.030562   -10484.882    235.15636    300.86215 
  497730    1.0307263   -10480.713     381.9553    291.32698 
  497740    1.0308657   -10476.472    346.58461    292.61083 
  497750    1.0309781   -10471.699    479.93582     298.1232 
  497760    1.0310545   -10467.008    704.71003    297.95764 
  497770    1.0310806   -10462.521    715.34981    297.55795 
  497780    1.0310554   -10458.113    543.25391    298.67018 
  497790    1.0309886   -10453.949    568.81517    302.18887 
  497800    1.0308795   -10450.523    606.88668    307.45617 
  497810    1.0307241   -10448.137    732.87782    302.37661 
  497820    1.0305145   -10446.166    856.80947    291.66033 
  497830    1.0302454    -10444.17    375.36747    305.50016 
  497840    1.0299439   -10442.572    281.65934    306.19715 
  497850    1.0296212   -10441.939    220.03513    301.72332 
  497860    1.0292828   -10441.635   -159.92619    300.99529 
  497870    1.0289566   -10441.885   -625.82327    305.95854 
  497880    1.0286722   -10443.004   -727.36016     309.9623 
  497890    1.0284376   -10445.579    -348.4527    302.95482 
  497900    1.0282279   -10448.707    82.866533    293.52531 
  497910    1.0280149   -10452.123   -58.624737     302.3788 
  497920     1.027803   -10455.848   -61.765566     297.5441 
  497930    1.0275973   -10460.092   -260.90686    299.88287 
  497940    1.0274088   -10465.283   -326.38952    306.03168 
  497950    1.0272409   -10471.743   -11.177264    300.18053 
  497960    1.0270748   -10479.147    57.412982    296.23071 
  497970     1.026906    -10487.63   -193.63017    302.95238 
  497980    1.0267474   -10496.839   -114.31083    296.58515 
  497990    1.0265984   -10507.192   -147.26546    302.23573 
  498000    1.0264562   -10517.855    143.82064    295.49934 
  498010    1.0263058   -10528.238    14.246556    296.89563 
  498020    1.0261552   -10538.112   -371.02217    302.08159 
  498030    1.0260283   -10547.288   -280.00649    298.27817 
  498040    1.0259211   -10555.343   -84.531841     296.6502 
  498050    1.0258201   -10561.703   -31.840112     294.8279 
  498060    1.0257228   -10566.861   -192.59673    300.05221 
  498070    1.0256371   -10570.904   -150.36754    297.55344 
  498080    1.0255628    -10574.26    -150.7886     297.9646 
  498090    1.0254988   -10576.935     -46.6774    295.82792 
  498100    1.0254378   -10578.544    57.695806      288.881 
  498110    1.0253751   -10579.522   -148.72013    295.86178 
  498120    1.0253197   -10579.515    27.700509    286.12116 
  498130    1.0252642   -10578.656    3.2346058    286.57668 
  498140    1.0252087   -10576.488   -200.37365    289.97614 
  498150    1.0251668   -10573.505    -274.4922    290.93781 
  498160    1.0251454   -10570.043   -279.79831    291.15042 
  498170    1.0251441   -10565.581    -226.4729    283.46151 
  498180    1.0251638   -10560.435    -671.3826    296.58671 
  498190    1.0252291   -10554.551    -740.8876     297.2549 
  498200    1.0253487   -10549.082   -511.29685    292.39649 
  498210    1.0255071   -10543.293   -315.96837    290.70958 
  498220    1.0256906   -10536.976   -316.82641     293.3789 
  498230    1.0259001   -10530.541   -448.82435    298.02564 
  498240    1.0261423   -10524.244   -376.18487    298.16301 
  498250    1.0264142   -10518.573   -249.96824     297.9039 
  498260    1.0267051   -10512.949   -1.8267728    292.00191 
  498270    1.0270008   -10507.647    -38.83937    300.19721 
  498280    1.0272986   -10502.385    162.61424    297.44784 
  498290    1.0275886   -10497.709    138.22653    300.02274 
  498300    1.0278702    -10493.57    132.60967    300.73957 
  498310    1.0281425   -10489.722    288.90836    293.86539 
  498320    1.0283971   -10486.156    245.28982    299.04414 
  498330    1.0286353    -10482.47    94.873987    300.82228 
  498340    1.0288693   -10479.846   -154.13068    310.95281 
  498350     1.029111   -10477.934    273.06157    296.26522 
  498360    1.0293376   -10476.631    396.68088    297.72913 
  498370    1.0295366   -10475.157    386.00246    298.08391 
  498380    1.0297088   -10473.751    331.84847    299.91468 
  498390    1.0298572   -10472.748    302.42291     306.1077 
  498400    1.0299816   -10472.379    666.36153    297.92755 
  498410    1.0300585    -10472.16    894.28069    295.44247 
  498420    1.0300716   -10471.725    837.73884    297.48258 
  498430    1.0300246   -10471.304    528.84427    303.67924 
  498440    1.0299366    -10471.42    417.76932    302.13051 
  498450    1.0298158   -10471.718    532.04369    295.71166 
  498460    1.0296575   -10472.575    249.87577    308.12681 
  498470    1.0294768   -10473.878    271.82952    300.24712 
  498480    1.0292768   -10476.252    95.417164     304.1796 
  498490    1.0290663   -10479.263    61.959746    302.66597 
  498500    1.0288495   -10483.675    129.12109    301.17692 
  498510    1.0286216   -10488.786     238.7456    295.60648 
  498520    1.0283759   -10494.972    142.89319    298.58196 
  498530    1.0281176   -10501.799    40.087938    294.30404 
  498540    1.0278554   -10509.811   -176.34674    296.77398 
  498550    1.0276032   -10518.566   -236.73401    293.01219 
  498560    1.0273665   -10527.721   -348.49354    293.15859 
  498570    1.0271535   -10537.489   -361.65059    296.58831 
  498580     1.026964   -10546.968   -165.01006    288.17961 
  498590    1.0267884   -10556.206   -351.66446    295.59076 
  498600     1.026634    -10564.63   -198.84315    290.57869 
  498610    1.0264937   -10571.703    -99.51848    288.05791 
  498620    1.0263617   -10577.872   -310.54925    298.28598 
  498630    1.0262487   -10583.193   -172.81359    293.81683 
  498640    1.0261486   -10587.971   -98.634674    296.15498 
  498650    1.0260529   -10591.805    169.27434    289.91417 
  498660    1.0259453   -10594.885    283.66747    292.33487 
  498670    1.0258142   -10596.519    489.60519    285.80121 
  498680    1.0256491   -10597.298    400.86947    290.37669 
  498690    1.0254518   -10596.712    291.06313    289.06544 
  498700    1.0252326   -10595.638   -27.982241    296.44095 
  498710    1.0250111   -10593.842   -109.19278     290.9118 
  498720    1.0247979   -10591.665   -288.83642    291.21836 
  498730    1.0246035   -10588.888   -350.43921    294.04966 
  498740    1.0244312   -10585.688   -189.88446    291.79124 
  498750    1.0242726   -10582.082   -181.64879    289.25919 
  498760    1.0241272    -10577.73   -378.88972    292.07087 
  498770    1.0240065   -10573.096   -265.56882    294.83735 
  498780    1.0239031   -10568.282    66.047174    289.96759 
  498790    1.0237965    -10563.46   -14.602096    297.60288 
  498800    1.0236895   -10558.646   -185.24312    295.50444 
  498810    1.0235963   -10554.431   -402.93916    299.49866 
  498820    1.0235301   -10550.877    -362.3143    303.14548 
  498830    1.0234891   -10548.068   -180.17129    295.44164 
  498840    1.0234635   -10545.793   -314.28909    297.86218 
  498850    1.0234595   -10543.619   -376.53993    299.35081 
  498860    1.0234826   -10542.179   -296.89479    302.45132 
  498870    1.0235265   -10540.991   -11.594003    295.30879 
  498880    1.0235745   -10540.303   -67.162302    304.72272 
  498890    1.0236259   -10539.699     49.11532    292.45763 
  498900    1.0236791   -10539.296   -325.47021    300.83239 
  498910    1.0237533   -10538.818   -367.57573    302.75926 
  498920    1.0238552   -10538.982   -193.37241    298.32123 
  498930    1.0239718   -10539.002    16.679345     293.3719 
  498940    1.0240895   -10539.046    207.27423    296.64218 
  498950    1.0241915   -10538.097    471.84271    288.60729 
  498960    1.0242664   -10537.334    -42.17672    306.99805 
  498970    1.0243387   -10536.498    10.028639    304.39021 
  498980    1.0244122   -10537.154    154.11868    303.89876 
  498990    1.0244747   -10537.949    417.82757    294.83473 
  499000    1.0245086    -10538.88    403.97363    301.59534 
  499010    1.0245127    -10540.09    381.47409    303.29603 
  499020    1.0244875   -10541.638    447.17547    296.96589 
  499030    1.0244317   -10543.304    199.11479    298.89511 
  499040    1.0243608   -10545.264   -184.08896    306.02838 
  499050    1.0243001   -10547.901   -119.56595    297.90574 
  499060    1.0242471    -10550.61    55.845352    293.28398 
  499070    1.0241905   -10553.089    2.7501409    296.13036 
  499080    1.0241324   -10555.067    13.514694    287.68531 
  499090    1.0240741   -10556.209   -123.36624    289.50443 
  499100    1.0240238   -10556.345    -243.9841    292.27649 
  499110    1.0239907   -10555.738    -323.4044    291.85221 
  499120    1.0239815   -10554.308   -412.30498    293.74405 
  499130    1.0240018   -10552.061   -385.76652    292.96434 
  499140    1.0240526    -10548.81   -459.48488    289.61197 
  499150    1.0241373   -10543.715   -470.07911    290.69882 
  499160    1.0242577   -10536.987   -386.67732    301.49708 
  499170    1.0244058   -10528.665   -29.271947    295.03373 
  499180    1.0245609   -10518.949   -17.505514    291.57579 
  499190    1.0247211   -10507.348   -269.68632    299.27961 
  499200    1.0249011   -10494.628   -268.80773    302.07671 
  499210    1.0251033   -10482.356   -131.10544    299.40528 
  499220    1.0253199   -10471.276   -157.45319    308.92176 
  499230    1.0255476   -10461.887     257.1722    298.03125 
  499240    1.0257635    -10454.29    209.34627    298.59746 
  499250    1.0259671   -10447.802     3.471502    307.38637 
  499260    1.0261703   -10443.064    234.56851    304.72842 
  499270    1.0263592   -10439.713    418.19731    301.21199 
  499280    1.0265218   -10437.366    399.67663    301.45087 
  499290    1.0266572   -10435.535    341.85773     301.2006 
  499300    1.0267686   -10434.587    379.98454    306.53495 
  499310    1.0268502   -10434.076    713.04471    298.00549 
  499320    1.0268856   -10434.404    473.19217    306.69965 
  499330     1.026884   -10435.191    417.47986    303.14208 
  499340    1.0268519   -10436.735     413.5192    299.92106 
  499350    1.0267882   -10438.474    400.18429    303.63248 
  499360    1.0266936    -10440.99    340.45701     310.2526 
  499370    1.0265721   -10444.764    270.31386    307.65019 
  499380    1.0264295    -10449.57    152.66482      304.937 
  499390    1.0262728   -10455.334     185.0475    304.92752 
  499400    1.0261005   -10461.617    230.02268    302.17106 
  499410    1.0259095   -10468.354    118.81402    301.28972 
  499420    1.0257065   -10475.034    17.192757    298.41763 
  499430    1.0254998    -10481.57   -217.27127    302.16718 
  499440    1.0253059   -10488.208   -353.49947    303.23791 
  499450    1.0251328   -10494.598   -95.003831    293.67241 
  499460     1.024966   -10500.125    17.945934    290.83677 
  499470    1.0247967   -10504.373   -124.45903    292.72011 
  499480    1.0246337   -10507.439   -239.44137    290.79765 
  499490    1.0244863   -10509.615   -343.73227    295.96483 
  499500    1.0243612   -10511.352   -334.98023    296.89079 
  499510    1.0242581   -10512.496   -213.54059    290.37402 
  499520     1.024172   -10513.201   -432.54426    297.79242 
  499530    1.0241157   -10513.327   -592.80383    297.65825 
  499540    1.0241042   -10513.895   -814.91715    305.60654 
  499550    1.0241492   -10514.881    -588.4974    300.42838 
  499560    1.0242385   -10515.978   -310.97218    291.51427 
  499570    1.0243556   -10516.854   -417.16666    296.30035 
  499580     1.024503    -10516.89   -359.71056    293.56248 
  499590    1.0246814   -10517.014   -488.74232    303.40625 
  499600    1.0248968   -10517.308   -402.24711    301.56475 
  499610    1.0251452   -10518.054   -243.50025    297.94371 
  499620    1.0254176   -10519.046   -305.41647    300.78099 
  499630    1.0257161   -10520.074   -408.53638    300.32361 
  499640    1.0260502   -10521.631   -505.39615    299.80192 
  499650    1.0264255   -10523.055   -349.47802    294.69751 
  499660    1.0268323   -10524.433   -97.025916    293.60991 
  499670     1.027253   -10524.872    50.316869    289.70967 
  499680    1.0276798    -10525.14   -309.19368    304.30262 
  499690    1.0281307    -10525.31    -53.83534    296.39972 
  499700    1.0285928   -10525.643    216.67183    294.01519 
  499710     1.029047   -10525.593    226.41017    296.86928 
  499720    1.0294899   -10525.021    246.54367    294.83926 
  499730    1.0299218   -10524.426    196.36416    299.40217 
  499740    1.0303437   -10523.521    242.80012     296.2464 
  499750    1.0307541   -10522.185    224.13904    292.88587 
  499760    1.0311542   -10520.183    132.64586    300.98177 
  499770    1.0315478   -10517.452    254.98211    298.46431 
  499780    1.0319292    -10514.14    234.14022    298.32642 
  499790    1.0322981   -10509.847    192.15473    301.44806 
  499800    1.0326557   -10504.449    408.61532    292.05575 
  499810    1.0329906    -10497.68    279.25592    298.56288 
  499820    1.0333074   -10489.566    269.67501     303.2447 
  499830    1.0336068   -10481.127    545.00055     297.0638 
  499840    1.0338709   -10472.193    645.87291     295.1845 
  499850     1.034093   -10462.997    378.89142    304.42823 
  499860    1.0342881    -10454.03    230.73855    301.80602 
  499870    1.0344684   -10446.095    172.45013    304.10029 
  499880    1.0346362   -10439.033    444.13684    298.97435 
  499890    1.0347747   -10432.557    489.21011    299.07061 
  499900    1.0348799   -10426.719    369.24676    301.37672 
  499910    1.0349581   -10421.088    349.88904    294.75453 
  499920    1.0350156   -10415.968   -152.82704     307.1003 
  499930    1.0350823    -10411.52   -337.39347    308.97896 
  499940     1.035171   -10408.701    9.9753043    305.52144 
  499950    1.0352587   -10406.613    569.00127     292.2143 
  499960    1.0353103   -10404.293    468.37484    295.69272 
  499970     1.035328   -10401.883    241.86717    308.22995 
  499980    1.0353246   -10400.199    443.41004    302.19098 
  499990    1.0352893   -10399.169    579.81874    297.14975 
  500000    1.0352117   -10398.128    536.83089     296.8243 
Loop time of 10840.4 on 3 procs for 500000 steps with 3000 atoms

Performance: 3.985 ns/day, 6.022 hours/ns, 46.124 timesteps/s
99.6% CPU use with 3 MPI tasks x 1 OpenMP threads

MPI task timing breakdown:
Section |  min time  |  avg time  |  max time  |%varavg| %total
---------------------------------------------------------------
Pair    | 6859       | 7443.1     | 7860.9     | 493.3 | 68.66
Bond    | 0.65263    | 0.71838    | 0.81742    |   8.4 |  0.01
Kspace  | 1283.3     | 1700.9     | 2284.6     |1031.3 | 15.69
Neigh   | 556.8      | 556.85     | 556.92     |   0.2 |  5.14
Comm    | 208.93     | 212.73     | 217.62     |  24.9 |  1.96
Output  | 1.5681     | 2.1753     | 3.3783     |  57.7 |  0.02
Modify  | 871.44     | 883.33     | 893.23     |  30.3 |  8.15
Other   |            | 40.6       |            |       |  0.37

Nlocal:    1000 ave 1010 max 991 min
Histogram: 1 0 0 0 1 0 0 0 0 1
Nghost:    12714.3 ave 12781 max 12662 min
Histogram: 1 0 0 1 0 0 0 0 0 1
Neighs:    596136 ave 632730 max 571737 min
Histogram: 1 0 1 0 0 0 0 0 0 1

Total # of neighbors = 1788408
Ave neighs/atom = 596.136
Ave special neighs/atom = 2
Neighbor list builds = 22855
Dangerous builds = 0

#write_restart wat.restart
Total wall time: 3:02:14
