ITEM: TIMESTEP
0
ITEM: NUMBER OF ATOMS
24000
ITEM: BOX BOUNDS pp pp pp
0.0000000000000000e+00 6.2000000000000000e+01
0.0000000000000000e+00 6.2000000000000000e+01
0.0000000000000000e+00 6.2000000000000000e+01
ITEM: ATOMS id type xs ys zs
1 2 0.025 0.025 0.0241936
2 1 0.025 0.0381692 0.0335058
3 1 0.025 0.0118308 0.0335058
1201 2 0.025 0.025 0.0741936
1202 1 0.025 0.0381692 0.0835058
1203 1 0.025 0.0118308 0.0835058
61 2 0.025 0.075 0.0241936
62 1 0.025 0.0881692 0.0335058
63 1 0.025 0.0618308 0.0335058
1261 2 0.025 0.075 0.0741936
1262 1 0.025 0.0881692 0.0835058
1263 1 0.025 0.0618308 0.0835058
4 2 0.075 0.025 0.0241936
5 1 0.075 0.0381692 0.0335058
6 1 0.075 0.0118308 0.0335058
1204 2 0.075 0.025 0.0741936
1205 1 0.075 0.0381692 0.0835058
1206 1 0.075 0.0118308 0.0835058
64 2 0.075 0.075 0.0241936
65 1 0.075 0.0881692 0.0335058
66 1 0.075 0.0618308 0.0335058
1264 2 0.075 0.075 0.0741936
1265 1 0.075 0.0881692 0.0835058
1266 1 0.075 0.0618308 0.0835058
7 2 0.125 0.025 0.0241936
8 1 0.125 0.0381692 0.0335058
9 1 0.125 0.0118308 0.0335058
1207 2 0.125 0.025 0.0741936
1208 1 0.125 0.0381692 0.0835058
1209 1 0.125 0.0118308 0.0835058
67 2 0.125 0.075 0.0241936
68 1 0.125 0.0881692 0.0335058
69 1 0.125 0.0618308 0.0335058
1267 2 0.125 0.075 0.0741936
1268 1 0.125 0.0881692 0.0835058
1269 1 0.125 0.0618308 0.0835058
10 2 0.175 0.025 0.0241936
11 1 0.175 0.0381692 0.0335058
12 1 0.175 0.0118308 0.0335058
1210 2 0.175 0.025 0.0741936
1211 1 0.175 0.0381692 0.0835058
1212 1 0.175 0.0118308 0.0835058
70 2 0.175 0.075 0.0241936
71 1 0.175 0.0881692 0.0335058
72 1 0.175 0.0618308 0.0335058
1270 2 0.175 0.075 0.0741936
1271 1 0.175 0.0881692 0.0835058
1272 1 0.175 0.0618308 0.0835058
13 2 0.225 0.025 0.0241936
14 1 0.225 0.0381692 0.0335058
15 1 0.225 0.0118308 0.0335058
1213 2 0.225 0.025 0.0741936
1214 1 0.225 0.0381692 0.0835058
1215 1 0.225 0.0118308 0.0835058
73 2 0.225 0.075 0.0241936
74 1 0.225 0.0881692 0.0335058
75 1 0.225 0.0618308 0.0335058
1273 2 0.225 0.075 0.0741936
1274 1 0.225 0.0881692 0.0835058
1275 1 0.225 0.0618308 0.0835058
16 2 0.275 0.025 0.0241936
17 1 0.275 0.0381692 0.0335058
18 1 0.275 0.0118308 0.0335058
1216 2 0.275 0.025 0.0741936
1217 1 0.275 0.0381692 0.0835058
1218 1 0.275 0.0118308 0.0835058
76 2 0.275 0.075 0.0241936
77 1 0.275 0.0881692 0.0335058
78 1 0.275 0.0618308 0.0335058
1276 2 0.275 0.075 0.0741936
1277 1 0.275 0.0881692 0.0835058
1278 1 0.275 0.0618308 0.0835058
19 2 0.325 0.025 0.0241936
20 1 0.325 0.0381692 0.0335058
21 1 0.325 0.0118308 0.0335058
1219 2 0.325 0.025 0.0741936
1220 1 0.325 0.0381692 0.0835058
1221 1 0.325 0.0118308 0.0835058
79 2 0.325 0.075 0.0241936
80 1 0.325 0.0881692 0.0335058
81 1 0.325 0.0618308 0.0335058
1279 2 0.325 0.075 0.0741936
1280 1 0.325 0.0881692 0.0835058
1281 1 0.325 0.0618308 0.0835058
22 2 0.375 0.025 0.0241936
23 1 0.375 0.0381692 0.0335058
24 1 0.375 0.0118308 0.0335058
1222 2 0.375 0.025 0.0741936
1223 1 0.375 0.0381692 0.0835058
1224 1 0.375 0.0118308 0.0835058
82 2 0.375 0.075 0.0241936
83 1 0.375 0.0881692 0.0335058
84 1 0.375 0.0618308 0.0335058
1282 2 0.375 0.075 0.0741936
1283 1 0.375 0.0881692 0.0835058
1284 1 0.375 0.0618308 0.0835058
25 2 0.425 0.025 0.0241936
26 1 0.425 0.0381692 0.0335058
27 1 0.425 0.0118308 0.0335058
1225 2 0.425 0.025 0.0741936
1226 1 0.425 0.0381692 0.0835058
1227 1 0.425 0.0118308 0.0835058
85 2 0.425 0.075 0.0241936
86 1 0.425 0.0881692 0.0335058
87 1 0.425 0.0618308 0.0335058
1285 2 0.425 0.075 0.0741936
1286 1 0.425 0.0881692 0.0835058
1287 1 0.425 0.0618308 0.0835058
28 2 0.475 0.025 0.0241936
29 1 0.475 0.0381692 0.0335058
30 1 0.475 0.0118308 0.0335058
1228 2 0.475 0.025 0.0741936
1229 1 0.475 0.0381692 0.0835058
1230 1 0.475 0.0118308 0.0835058
88 2 0.475 0.075 0.0241936
89 1 0.475 0.0881692 0.0335058
90 1 0.475 0.0618308 0.0335058
1288 2 0.475 0.075 0.0741936
1289 1 0.475 0.0881692 0.0835058
1290 1 0.475 0.0618308 0.0835058
31 2 0.525 0.025 0.0241936
32 1 0.525 0.0381692 0.0335058
33 1 0.525 0.0118308 0.0335058
1231 2 0.525 0.025 0.0741936
1232 1 0.525 0.0381692 0.0835058
1233 1 0.525 0.0118308 0.0835058
91 2 0.525 0.075 0.0241936
92 1 0.525 0.0881692 0.0335058
93 1 0.525 0.0618308 0.0335058
1291 2 0.525 0.075 0.0741936
1292 1 0.525 0.0881692 0.0835058
1293 1 0.525 0.0618308 0.0835058
34 2 0.575 0.025 0.0241936
35 1 0.575 0.0381692 0.0335058
36 1 0.575 0.0118308 0.0335058
1234 2 0.575 0.025 0.0741936
1235 1 0.575 0.0381692 0.0835058
1236 1 0.575 0.0118308 0.0835058
94 2 0.575 0.075 0.0241936
95 1 0.575 0.0881692 0.0335058
96 1 0.575 0.0618308 0.0335058
1294 2 0.575 0.075 0.0741936
1295 1 0.575 0.0881692 0.0835058
1296 1 0.575 0.0618308 0.0835058
37 2 0.625 0.025 0.0241936
38 1 0.625 0.0381692 0.0335058
39 1 0.625 0.0118308 0.0335058
1237 2 0.625 0.025 0.0741936
1238 1 0.625 0.0381692 0.0835058
1239 1 0.625 0.0118308 0.0835058
97 2 0.625 0.075 0.0241936
98 1 0.625 0.0881692 0.0335058
99 1 0.625 0.0618308 0.0335058
1297 2 0.625 0.075 0.0741936
1298 1 0.625 0.0881692 0.0835058
1299 1 0.625 0.0618308 0.0835058
40 2 0.675 0.025 0.0241936
41 1 0.675 0.0381692 0.0335058
42 1 0.675 0.0118308 0.0335058
1240 2 0.675 0.025 0.0741936
1241 1 0.675 0.0381692 0.0835058
1242 1 0.675 0.0118308 0.0835058
100 2 0.675 0.075 0.0241936
101 1 0.675 0.0881692 0.0335058
102 1 0.675 0.0618308 0.0335058
1300 2 0.675 0.075 0.0741936
1301 1 0.675 0.0881692 0.0835058
1302 1 0.675 0.0618308 0.0835058
43 2 0.725 0.025 0.0241936
44 1 0.725 0.0381692 0.0335058
45 1 0.725 0.0118308 0.0335058
1243 2 0.725 0.025 0.0741936
1244 1 0.725 0.0381692 0.0835058
1245 1 0.725 0.0118308 0.0835058
103 2 0.725 0.075 0.0241936
104 1 0.725 0.0881692 0.0335058
105 1 0.725 0.0618308 0.0335058
1303 2 0.725 0.075 0.0741936
1304 1 0.725 0.0881692 0.0835058
1305 1 0.725 0.0618308 0.0835058
46 2 0.775 0.025 0.0241936
47 1 0.775 0.0381692 0.0335058
48 1 0.775 0.0118308 0.0335058
1246 2 0.775 0.025 0.0741936
1247 1 0.775 0.0381692 0.0835058
1248 1 0.775 0.0118308 0.0835058
106 2 0.775 0.075 0.0241936
107 1 0.775 0.0881692 0.0335058
108 1 0.775 0.0618308 0.0335058
1306 2 0.775 0.075 0.0741936
1307 1 0.775 0.0881692 0.0835058
1308 1 0.775 0.0618308 0.0835058
49 2 0.825 0.025 0.0241936
50 1 0.825 0.0381692 0.0335058
51 1 0.825 0.0118308 0.0335058
1249 2 0.825 0.025 0.0741936
1250 1 0.825 0.0381692 0.0835058
1251 1 0.825 0.0118308 0.0835058
109 2 0.825 0.075 0.0241936
110 1 0.825 0.0881692 0.0335058
111 1 0.825 0.0618308 0.0335058
1309 2 0.825 0.075 0.0741936
1310 1 0.825 0.0881692 0.0835058
1311 1 0.825 0.0618308 0.0835058
52 2 0.875 0.025 0.0241936
53 1 0.875 0.0381692 0.0335058
54 1 0.875 0.0118308 0.0335058
1252 2 0.875 0.025 0.0741936
1253 1 0.875 0.0381692 0.0835058
1254 1 0.875 0.0118308 0.0835058
112 2 0.875 0.075 0.0241936
113 1 0.875 0.0881692 0.0335058
114 1 0.875 0.0618308 0.0335058
1312 2 0.875 0.075 0.0741936
1313 1 0.875 0.0881692 0.0835058
1314 1 0.875 0.0618308 0.0835058
55 2 0.925 0.025 0.0241936
56 1 0.925 0.0381692 0.0335058
57 1 0.925 0.0118308 0.0335058
1255 2 0.925 0.025 0.0741936
1256 1 0.925 0.0381692 0.0835058
1257 1 0.925 0.0118308 0.0835058
115 2 0.925 0.075 0.0241936
116 1 0.925 0.0881692 0.0335058
117 1 0.925 0.0618308 0.0335058
1315 2 0.925 0.075 0.0741936
1316 1 0.925 0.0881692 0.0835058
1317 1 0.925 0.0618308 0.0835058
58 2 0.975 0.025 0.0241936
59 1 0.975 0.0381692 0.0335058
60 1 0.975 0.0118308 0.0335058
1258 2 0.975 0.025 0.0741936
1259 1 0.975 0.0381692 0.0835058
1260 1 0.975 0.0118308 0.0835058
118 2 0.975 0.075 0.0241936
119 1 0.975 0.0881692 0.0335058
120 1 0.975 0.0618308 0.0335058
1318 2 0.975 0.075 0.0741936
1319 1 0.975 0.0881692 0.0835058
1320 1 0.975 0.0618308 0.0835058
121 2 0.025 0.125 0.0241936
122 1 0.025 0.138169 0.0335058
123 1 0.025 0.111831 0.0335058
1321 2 0.025 0.125 0.0741936
1322 1 0.025 0.138169 0.0835058
1323 1 0.025 0.111831 0.0835058
181 2 0.025 0.175 0.0241936
182 1 0.025 0.188169 0.0335058
183 1 0.025 0.161831 0.0335058
1381 2 0.025 0.175 0.0741936
1382 1 0.025 0.188169 0.0835058
1383 1 0.025 0.161831 0.0835058
124 2 0.075 0.125 0.0241936
125 1 0.075 0.138169 0.0335058
126 1 0.075 0.111831 0.0335058
1324 2 0.075 0.125 0.0741936
1325 1 0.075 0.138169 0.0835058
1326 1 0.075 0.111831 0.0835058
184 2 0.075 0.175 0.0241936
185 1 0.075 0.188169 0.0335058
186 1 0.075 0.161831 0.0335058
1384 2 0.075 0.175 0.0741936
1385 1 0.075 0.188169 0.0835058
1386 1 0.075 0.161831 0.0835058
127 2 0.125 0.125 0.0241936
128 1 0.125 0.138169 0.0335058
129 1 0.125 0.111831 0.0335058
1327 2 0.125 0.125 0.0741936
1328 1 0.125 0.138169 0.0835058
1329 1 0.125 0.111831 0.0835058
187 2 0.125 0.175 0.0241936
188 1 0.125 0.188169 0.0335058
189 1 0.125 0.161831 0.0335058
1387 2 0.125 0.175 0.0741936
1388 1 0.125 0.188169 0.0835058
1389 1 0.125 0.161831 0.0835058
130 2 0.175 0.125 0.0241936
131 1 0.175 0.138169 0.0335058
132 1 0.175 0.111831 0.0335058
1330 2 0.175 0.125 0.0741936
1331 1 0.175 0.138169 0.0835058
1332 1 0.175 0.111831 0.0835058
190 2 0.175 0.175 0.0241936
191 1 0.175 0.188169 0.0335058
192 1 0.175 0.161831 0.0335058
1390 2 0.175 0.175 0.0741936
1391 1 0.175 0.188169 0.0835058
1392 1 0.175 0.161831 0.0835058
133 2 0.225 0.125 0.0241936
134 1 0.225 0.138169 0.0335058
135 1 0.225 0.111831 0.0335058
1333 2 0.225 0.125 0.0741936
1334 1 0.225 0.138169 0.0835058
1335 1 0.225 0.111831 0.0835058
193 2 0.225 0.175 0.0241936
194 1 0.225 0.188169 0.0335058
195 1 0.225 0.161831 0.0335058
1393 2 0.225 0.175 0.0741936
1394 1 0.225 0.188169 0.0835058
1395 1 0.225 0.161831 0.0835058
136 2 0.275 0.125 0.0241936
137 1 0.275 0.138169 0.0335058
138 1 0.275 0.111831 0.0335058
1336 2 0.275 0.125 0.0741936
1337 1 0.275 0.138169 0.0835058
1338 1 0.275 0.111831 0.0835058
196 2 0.275 0.175 0.0241936
197 1 0.275 0.188169 0.0335058
198 1 0.275 0.161831 0.0335058
1396 2 0.275 0.175 0.0741936
1397 1 0.275 0.188169 0.0835058
1398 1 0.275 0.161831 0.0835058
139 2 0.325 0.125 0.0241936
140 1 0.325 0.138169 0.0335058
141 1 0.325 0.111831 0.0335058
1339 2 0.325 0.125 0.0741936
1340 1 0.325 0.138169 0.0835058
1341 1 0.325 0.111831 0.0835058
199 2 0.325 0.175 0.0241936
200 1 0.325 0.188169 0.0335058
201 1 0.325 0.161831 0.0335058
1399 2 0.325 0.175 0.0741936
1400 1 0.325 0.188169 0.0835058
1401 1 0.325 0.161831 0.0835058
142 2 0.375 0.125 0.0241936
143 1 0.375 0.138169 0.0335058
144 1 0.375 0.111831 0.0335058
1342 2 0.375 0.125 0.0741936
1343 1 0.375 0.138169 0.0835058
1344 1 0.375 0.111831 0.0835058
202 2 0.375 0.175 0.0241936
203 1 0.375 0.188169 0.0335058
204 1 0.375 0.161831 0.0335058
1402 2 0.375 0.175 0.0741936
1403 1 0.375 0.188169 0.0835058
1404 1 0.375 0.161831 0.0835058
145 2 0.425 0.125 0.0241936
146 1 0.425 0.138169 0.0335058
147 1 0.425 0.111831 0.0335058
1345 2 0.425 0.125 0.0741936
1346 1 0.425 0.138169 0.0835058
1347 1 0.425 0.111831 0.0835058
205 2 0.425 0.175 0.0241936
206 1 0.425 0.188169 0.0335058
207 1 0.425 0.161831 0.0335058
1405 2 0.425 0.175 0.0741936
1406 1 0.425 0.188169 0.0835058
1407 1 0.425 0.161831 0.0835058
148 2 0.475 0.125 0.0241936
149 1 0.475 0.138169 0.0335058
150 1 0.475 0.111831 0.0335058
1348 2 0.475 0.125 0.0741936
1349 1 0.475 0.138169 0.0835058
1350 1 0.475 0.111831 0.0835058
208 2 0.475 0.175 0.0241936
209 1 0.475 0.188169 0.0335058
210 1 0.475 0.161831 0.0335058
1408 2 0.475 0.175 0.0741936
1409 1 0.475 0.188169 0.0835058
1410 1 0.475 0.161831 0.0835058
151 2 0.525 0.125 0.0241936
152 1 0.525 0.138169 0.0335058
153 1 0.525 0.111831 0.0335058
1351 2 0.525 0.125 0.0741936
1352 1 0.525 0.138169 0.0835058
1353 1 0.525 0.111831 0.0835058
211 2 0.525 0.175 0.0241936
212 1 0.525 0.188169 0.0335058
213 1 0.525 0.161831 0.0335058
1411 2 0.525 0.175 0.0741936
1412 1 0.525 0.188169 0.0835058
1413 1 0.525 0.161831 0.0835058
154 2 0.575 0.125 0.0241936
155 1 0.575 0.138169 0.0335058
156 1 0.575 0.111831 0.0335058
1354 2 0.575 0.125 0.0741936
1355 1 0.575 0.138169 0.0835058
1356 1 0.575 0.111831 0.0835058
214 2 0.575 0.175 0.0241936
215 1 0.575 0.188169 0.0335058
216 1 0.575 0.161831 0.0335058
1414 2 0.575 0.175 0.0741936
1415 1 0.575 0.188169 0.0835058
1416 1 0.575 0.161831 0.0835058
157 2 0.625 0.125 0.0241936
158 1 0.625 0.138169 0.0335058
159 1 0.625 0.111831 0.0335058
1357 2 0.625 0.125 0.0741936
1358 1 0.625 0.138169 0.0835058
1359 1 0.625 0.111831 0.0835058
217 2 0.625 0.175 0.0241936
218 1 0.625 0.188169 0.0335058
219 1 0.625 0.161831 0.0335058
1417 2 0.625 0.175 0.0741936
1418 1 0.625 0.188169 0.0835058
1419 1 0.625 0.161831 0.0835058
160 2 0.675 0.125 0.0241936
161 1 0.675 0.138169 0.0335058
162 1 0.675 0.111831 0.0335058
1360 2 0.675 0.125 0.0741936
1361 1 0.675 0.138169 0.0835058
1362 1 0.675 0.111831 0.0835058
220 2 0.675 0.175 0.0241936
221 1 0.675 0.188169 0.0335058
222 1 0.675 0.161831 0.0335058
1420 2 0.675 0.175 0.0741936
1421 1 0.675 0.188169 0.0835058
1422 1 0.675 0.161831 0.0835058
163 2 0.725 0.125 0.0241936
164 1 0.725 0.138169 0.0335058
165 1 0.725 0.111831 0.0335058
1363 2 0.725 0.125 0.0741936
1364 1 0.725 0.138169 0.0835058
1365 1 0.725 0.111831 0.0835058
223 2 0.725 0.175 0.0241936
224 1 0.725 0.188169 0.0335058
225 1 0.725 0.161831 0.0335058
1423 2 0.725 0.175 0.0741936
1424 1 0.725 0.188169 0.0835058
1425 1 0.725 0.161831 0.0835058
166 2 0.775 0.125 0.0241936
167 1 0.775 0.138169 0.0335058
168 1 0.775 0.111831 0.0335058
1366 2 0.775 0.125 0.0741936
1367 1 0.775 0.138169 0.0835058
1368 1 0.775 0.111831 0.0835058
226 2 0.775 0.175 0.0241936
227 1 0.775 0.188169 0.0335058
228 1 0.775 0.161831 0.0335058
1426 2 0.775 0.175 0.0741936
1427 1 0.775 0.188169 0.0835058
1428 1 0.775 0.161831 0.0835058
169 2 0.825 0.125 0.0241936
170 1 0.825 0.138169 0.0335058
171 1 0.825 0.111831 0.0335058
1369 2 0.825 0.125 0.0741936
1370 1 0.825 0.138169 0.0835058
1371 1 0.825 0.111831 0.0835058
229 2 0.825 0.175 0.0241936
230 1 0.825 0.188169 0.0335058
231 1 0.825 0.161831 0.0335058
1429 2 0.825 0.175 0.0741936
1430 1 0.825 0.188169 0.0835058
1431 1 0.825 0.161831 0.0835058
172 2 0.875 0.125 0.0241936
173 1 0.875 0.138169 0.0335058
174 1 0.875 0.111831 0.0335058
1372 2 0.875 0.125 0.0741936
1373 1 0.875 0.138169 0.0835058
1374 1 0.875 0.111831 0.0835058
232 2 0.875 0.175 0.0241936
233 1 0.875 0.188169 0.0335058
234 1 0.875 0.161831 0.0335058
1432 2 0.875 0.175 0.0741936
1433 1 0.875 0.188169 0.0835058
1434 1 0.875 0.161831 0.0835058
175 2 0.925 0.125 0.0241936
176 1 0.925 0.138169 0.0335058
177 1 0.925 0.111831 0.0335058
1375 2 0.925 0.125 0.0741936
1376 1 0.925 0.138169 0.0835058
1377 1 0.925 0.111831 0.0835058
235 2 0.925 0.175 0.0241936
236 1 0.925 0.188169 0.0335058
237 1 0.925 0.161831 0.0335058
1435 2 0.925 0.175 0.0741936
1436 1 0.925 0.188169 0.0835058
1437 1 0.925 0.161831 0.0835058
178 2 0.975 0.125 0.0241936
179 1 0.975 0.138169 0.0335058
180 1 0.975 0.111831 0.0335058
1378 2 0.975 0.125 0.0741936
1379 1 0.975 0.138169 0.0835058
1380 1 0.975 0.111831 0.0835058
238 2 0.975 0.175 0.0241936
239 1 0.975 0.188169 0.0335058
240 1 0.975 0.161831 0.0335058
1438 2 0.975 0.175 0.0741936
1439 1 0.975 0.188169 0.0835058
1440 1 0.975 0.161831 0.0835058
241 2 0.025 0.225 0.0241936
242 1 0.025 0.238169 0.0335058
243 1 0.025 0.211831 0.0335058
1441 2 0.025 0.225 0.0741936
1442 1 0.025 0.238169 0.0835058
1443 1 0.025 0.211831 0.0835058
301 2 0.025 0.275 0.0241936
302 1 0.025 0.288169 0.0335058
303 1 0.025 0.261831 0.0335058
1501 2 0.025 0.275 0.0741936
1502 1 0.025 0.288169 0.0835058
1503 1 0.025 0.261831 0.0835058
244 2 0.075 0.225 0.0241936
245 1 0.075 0.238169 0.0335058
246 1 0.075 0.211831 0.0335058
1444 2 0.075 0.225 0.0741936
1445 1 0.075 0.238169 0.0835058
1446 1 0.075 0.211831 0.0835058
304 2 0.075 0.275 0.0241936
305 1 0.075 0.288169 0.0335058
306 1 0.075 0.261831 0.0335058
1504 2 0.075 0.275 0.0741936
1505 1 0.075 0.288169 0.0835058
1506 1 0.075 0.261831 0.0835058
247 2 0.125 0.225 0.0241936
248 1 0.125 0.238169 0.0335058
249 1 0.125 0.211831 0.0335058
1447 2 0.125 0.225 0.0741936
1448 1 0.125 0.238169 0.0835058
1449 1 0.125 0.211831 0.0835058
307 2 0.125 0.275 0.0241936
308 1 0.125 0.288169 0.0335058
309 1 0.125 0.261831 0.0335058
1507 2 0.125 0.275 0.0741936
1508 1 0.125 0.288169 0.0835058
1509 1 0.125 0.261831 0.0835058
250 2 0.175 0.225 0.0241936
251 1 0.175 0.238169 0.0335058
252 1 0.175 0.211831 0.0335058
1450 2 0.175 0.225 0.0741936
1451 1 0.175 0.238169 0.0835058
1452 1 0.175 0.211831 0.0835058
310 2 0.175 0.275 0.0241936
311 1 0.175 0.288169 0.0335058
312 1 0.175 0.261831 0.0335058
1510 2 0.175 0.275 0.0741936
1511 1 0.175 0.288169 0.0835058
1512 1 0.175 0.261831 0.0835058
253 2 0.225 0.225 0.0241936
254 1 0.225 0.238169 0.0335058
255 1 0.225 0.211831 0.0335058
1453 2 0.225 0.225 0.0741936
1454 1 0.225 0.238169 0.0835058
1455 1 0.225 0.211831 0.0835058
313 2 0.225 0.275 0.0241936
314 1 0.225 0.288169 0.0335058
315 1 0.225 0.261831 0.0335058
1513 2 0.225 0.275 0.0741936
1514 1 0.225 0.288169 0.0835058
1515 1 0.225 0.261831 0.0835058
256 2 0.275 0.225 0.0241936
257 1 0.275 0.238169 0.0335058
258 1 0.275 0.211831 0.0335058
1456 2 0.275 0.225 0.0741936
1457 1 0.275 0.238169 0.0835058
1458 1 0.275 0.211831 0.0835058
316 2 0.275 0.275 0.0241936
317 1 0.275 0.288169 0.0335058
318 1 0.275 0.261831 0.0335058
1516 2 0.275 0.275 0.0741936
1517 1 0.275 0.288169 0.0835058
1518 1 0.275 0.261831 0.0835058
259 2 0.325 0.225 0.0241936
260 1 0.325 0.238169 0.0335058
261 1 0.325 0.211831 0.0335058
1459 2 0.325 0.225 0.0741936
1460 1 0.325 0.238169 0.0835058
1461 1 0.325 0.211831 0.0835058
319 2 0.325 0.275 0.0241936
320 1 0.325 0.288169 0.0335058
321 1 0.325 0.261831 0.0335058
1519 2 0.325 0.275 0.0741936
1520 1 0.325 0.288169 0.0835058
1521 1 0.325 0.261831 0.0835058
262 2 0.375 0.225 0.0241936
263 1 0.375 0.238169 0.0335058
264 1 0.375 0.211831 0.0335058
1462 2 0.375 0.225 0.0741936
1463 1 0.375 0.238169 0.0835058
1464 1 0.375 0.211831 0.0835058
322 2 0.375 0.275 0.0241936
323 1 0.375 0.288169 0.0335058
324 1 0.375 0.261831 0.0335058
1522 2 0.375 0.275 0.0741936
1523 1 0.375 0.288169 0.0835058
1524 1 0.375 0.261831 0.0835058
265 2 0.425 0.225 0.0241936
266 1 0.425 0.238169 0.0335058
267 1 0.425 0.211831 0.0335058
1465 2 0.425 0.225 0.0741936
1466 1 0.425 0.238169 0.0835058
1467 1 0.425 0.211831 0.0835058
325 2 0.425 0.275 0.0241936
326 1 0.425 0.288169 0.0335058
327 1 0.425 0.261831 0.0335058
1525 2 0.425 0.275 0.0741936
1526 1 0.425 0.288169 0.0835058
1527 1 0.425 0.261831 0.0835058
268 2 0.475 0.225 0.0241936
269 1 0.475 0.238169 0.0335058
270 1 0.475 0.211831 0.0335058
1468 2 0.475 0.225 0.0741936
1469 1 0.475 0.238169 0.0835058
1470 1 0.475 0.211831 0.0835058
328 2 0.475 0.275 0.0241936
329 1 0.475 0.288169 0.0335058
330 1 0.475 0.261831 0.0335058
1528 2 0.475 0.275 0.0741936
1529 1 0.475 0.288169 0.0835058
1530 1 0.475 0.261831 0.0835058
271 2 0.525 0.225 0.0241936
272 1 0.525 0.238169 0.0335058
273 1 0.525 0.211831 0.0335058
1471 2 0.525 0.225 0.0741936
1472 1 0.525 0.238169 0.0835058
1473 1 0.525 0.211831 0.0835058
331 2 0.525 0.275 0.0241936
332 1 0.525 0.288169 0.0335058
333 1 0.525 0.261831 0.0335058
1531 2 0.525 0.275 0.0741936
1532 1 0.525 0.288169 0.0835058
1533 1 0.525 0.261831 0.0835058
274 2 0.575 0.225 0.0241936
275 1 0.575 0.238169 0.0335058
276 1 0.575 0.211831 0.0335058
1474 2 0.575 0.225 0.0741936
1475 1 0.575 0.238169 0.0835058
1476 1 0.575 0.211831 0.0835058
334 2 0.575 0.275 0.0241936
335 1 0.575 0.288169 0.0335058
336 1 0.575 0.261831 0.0335058
1534 2 0.575 0.275 0.0741936
1535 1 0.575 0.288169 0.0835058
1536 1 0.575 0.261831 0.0835058
277 2 0.625 0.225 0.0241936
278 1 0.625 0.238169 0.0335058
279 1 0.625 0.211831 0.0335058
1477 2 0.625 0.225 0.0741936
1478 1 0.625 0.238169 0.0835058
1479 1 0.625 0.211831 0.0835058
337 2 0.625 0.275 0.0241936
338 1 0.625 0.288169 0.0335058
339 1 0.625 0.261831 0.0335058
1537 2 0.625 0.275 0.0741936
1538 1 0.625 0.288169 0.0835058
1539 1 0.625 0.261831 0.0835058
280 2 0.675 0.225 0.0241936
281 1 0.675 0.238169 0.0335058
282 1 0.675 0.211831 0.0335058
1480 2 0.675 0.225 0.0741936
1481 1 0.675 0.238169 0.0835058
1482 1 0.675 0.211831 0.0835058
340 2 0.675 0.275 0.0241936
341 1 0.675 0.288169 0.0335058
342 1 0.675 0.261831 0.0335058
1540 2 0.675 0.275 0.0741936
1541 1 0.675 0.288169 0.0835058
1542 1 0.675 0.261831 0.0835058
283 2 0.725 0.225 0.0241936
284 1 0.725 0.238169 0.0335058
285 1 0.725 0.211831 0.0335058
1483 2 0.725 0.225 0.0741936
1484 1 0.725 0.238169 0.0835058
1485 1 0.725 0.211831 0.0835058
343 2 0.725 0.275 0.0241936
344 1 0.725 0.288169 0.0335058
345 1 0.725 0.261831 0.0335058
1543 2 0.725 0.275 0.0741936
1544 1 0.725 0.288169 0.0835058
1545 1 0.725 0.261831 0.0835058
286 2 0.775 0.225 0.0241936
287 1 0.775 0.238169 0.0335058
288 1 0.775 0.211831 0.0335058
1486 2 0.775 0.225 0.0741936
1487 1 0.775 0.238169 0.0835058
1488 1 0.775 0.211831 0.0835058
346 2 0.775 0.275 0.0241936
347 1 0.775 0.288169 0.0335058
348 1 0.775 0.261831 0.0335058
1546 2 0.775 0.275 0.0741936
1547 1 0.775 0.288169 0.0835058
1548 1 0.775 0.261831 0.0835058
289 2 0.825 0.225 0.0241936
290 1 0.825 0.238169 0.0335058
291 1 0.825 0.211831 0.0335058
1489 2 0.825 0.225 0.0741936
1490 1 0.825 0.238169 0.0835058
1491 1 0.825 0.211831 0.0835058
349 2 0.825 0.275 0.0241936
350 1 0.825 0.288169 0.0335058
351 1 0.825 0.261831 0.0335058
1549 2 0.825 0.275 0.0741936
1550 1 0.825 0.288169 0.0835058
1551 1 0.825 0.261831 0.0835058
292 2 0.875 0.225 0.0241936
293 1 0.875 0.238169 0.0335058
294 1 0.875 0.211831 0.0335058
1492 2 0.875 0.225 0.0741936
1493 1 0.875 0.238169 0.0835058
1494 1 0.875 0.211831 0.0835058
352 2 0.875 0.275 0.0241936
353 1 0.875 0.288169 0.0335058
354 1 0.875 0.261831 0.0335058
1552 2 0.875 0.275 0.0741936
1553 1 0.875 0.288169 0.0835058
1554 1 0.875 0.261831 0.0835058
295 2 0.925 0.225 0.0241936
296 1 0.925 0.238169 0.0335058
297 1 0.925 0.211831 0.0335058
1495 2 0.925 0.225 0.0741936
1496 1 0.925 0.238169 0.0835058
1497 1 0.925 0.211831 0.0835058
355 2 0.925 0.275 0.0241936
356 1 0.925 0.288169 0.0335058
357 1 0.925 0.261831 0.0335058
1555 2 0.925 0.275 0.0741936
1556 1 0.925 0.288169 0.0835058
1557 1 0.925 0.261831 0.0835058
298 2 0.975 0.225 0.0241936
299 1 0.975 0.238169 0.0335058
300 1 0.975 0.211831 0.0335058
1498 2 0.975 0.225 0.0741936
1499 1 0.975 0.238169 0.0835058
1500 1 0.975 0.211831 0.0835058
358 2 0.975 0.275 0.0241936
359 1 0.975 0.288169 0.0335058
360 1 0.975 0.261831 0.0335058
1558 2 0.975 0.275 0.0741936
1559 1 0.975 0.288169 0.0835058
1560 1 0.975 0.261831 0.0835058
361 2 0.025 0.325 0.0241936
362 1 0.025 0.338169 0.0335058
363 1 0.025 0.311831 0.0335058
1561 2 0.025 0.325 0.0741936
1562 1 0.025 0.338169 0.0835058
1563 1 0.025 0.311831 0.0835058
421 2 0.025 0.375 0.0241936
422 1 0.025 0.388169 0.0335058
423 1 0.025 0.361831 0.0335058
1621 2 0.025 0.375 0.0741936
1622 1 0.025 0.388169 0.0835058
1623 1 0.025 0.361831 0.0835058
364 2 0.075 0.325 0.0241936
365 1 0.075 0.338169 0.0335058
366 1 0.075 0.311831 0.0335058
1564 2 0.075 0.325 0.0741936
1565 1 0.075 0.338169 0.0835058
1566 1 0.075 0.311831 0.0835058
424 2 0.075 0.375 0.0241936
425 1 0.075 0.388169 0.0335058
426 1 0.075 0.361831 0.0335058
1624 2 0.075 0.375 0.0741936
1625 1 0.075 0.388169 0.0835058
1626 1 0.075 0.361831 0.0835058
367 2 0.125 0.325 0.0241936
368 1 0.125 0.338169 0.0335058
369 1 0.125 0.311831 0.0335058
1567 2 0.125 0.325 0.0741936
1568 1 0.125 0.338169 0.0835058
1569 1 0.125 0.311831 0.0835058
427 2 0.125 0.375 0.0241936
428 1 0.125 0.388169 0.0335058
429 1 0.125 0.361831 0.0335058
1627 2 0.125 0.375 0.0741936
1628 1 0.125 0.388169 0.0835058
1629 1 0.125 0.361831 0.0835058
370 2 0.175 0.325 0.0241936
371 1 0.175 0.338169 0.0335058
372 1 0.175 0.311831 0.0335058
1570 2 0.175 0.325 0.0741936
1571 1 0.175 0.338169 0.0835058
1572 1 0.175 0.311831 0.0835058
430 2 0.175 0.375 0.0241936
431 1 0.175 0.388169 0.0335058
432 1 0.175 0.361831 0.0335058
1630 2 0.175 0.375 0.0741936
1631 1 0.175 0.388169 0.0835058
1632 1 0.175 0.361831 0.0835058
373 2 0.225 0.325 0.0241936
374 1 0.225 0.338169 0.0335058
375 1 0.225 0.311831 0.0335058
1573 2 0.225 0.325 0.0741936
1574 1 0.225 0.338169 0.0835058
1575 1 0.225 0.311831 0.0835058
433 2 0.225 0.375 0.0241936
434 1 0.225 0.388169 0.0335058
435 1 0.225 0.361831 0.0335058
1633 2 0.225 0.375 0.0741936
1634 1 0.225 0.388169 0.0835058
1635 1 0.225 0.361831 0.0835058
376 2 0.275 0.325 0.0241936
377 1 0.275 0.338169 0.0335058
378 1 0.275 0.311831 0.0335058
1576 2 0.275 0.325 0.0741936
1577 1 0.275 0.338169 0.0835058
1578 1 0.275 0.311831 0.0835058
436 2 0.275 0.375 0.0241936
437 1 0.275 0.388169 0.0335058
438 1 0.275 0.361831 0.0335058
1636 2 0.275 0.375 0.0741936
1637 1 0.275 0.388169 0.0835058
1638 1 0.275 0.361831 0.0835058
379 2 0.325 0.325 0.0241936
380 1 0.325 0.338169 0.0335058
381 1 0.325 0.311831 0.0335058
1579 2 0.325 0.325 0.0741936
1580 1 0.325 0.338169 0.0835058
1581 1 0.325 0.311831 0.0835058
439 2 0.325 0.375 0.0241936
440 1 0.325 0.388169 0.0335058
441 1 0.325 0.361831 0.0335058
1639 2 0.325 0.375 0.0741936
1640 1 0.325 0.388169 0.0835058
1641 1 0.325 0.361831 0.0835058
382 2 0.375 0.325 0.0241936
383 1 0.375 0.338169 0.0335058
384 1 0.375 0.311831 0.0335058
1582 2 0.375 0.325 0.0741936
1583 1 0.375 0.338169 0.0835058
1584 1 0.375 0.311831 0.0835058
442 2 0.375 0.375 0.0241936
443 1 0.375 0.388169 0.0335058
444 1 0.375 0.361831 0.0335058
1642 2 0.375 0.375 0.0741936
1643 1 0.375 0.388169 0.0835058
1644 1 0.375 0.361831 0.0835058
385 2 0.425 0.325 0.0241936
386 1 0.425 0.338169 0.0335058
387 1 0.425 0.311831 0.0335058
1585 2 0.425 0.325 0.0741936
1586 1 0.425 0.338169 0.0835058
1587 1 0.425 0.311831 0.0835058
445 2 0.425 0.375 0.0241936
446 1 0.425 0.388169 0.0335058
447 1 0.425 0.361831 0.0335058
1645 2 0.425 0.375 0.0741936
1646 1 0.425 0.388169 0.0835058
1647 1 0.425 0.361831 0.0835058
388 2 0.475 0.325 0.0241936
389 1 0.475 0.338169 0.0335058
390 1 0.475 0.311831 0.0335058
1588 2 0.475 0.325 0.0741936
1589 1 0.475 0.338169 0.0835058
1590 1 0.475 0.311831 0.0835058
448 2 0.475 0.375 0.0241936
449 1 0.475 0.388169 0.0335058
450 1 0.475 0.361831 0.0335058
1648 2 0.475 0.375 0.0741936
1649 1 0.475 0.388169 0.0835058
1650 1 0.475 0.361831 0.0835058
391 2 0.525 0.325 0.0241936
392 1 0.525 0.338169 0.0335058
393 1 0.525 0.311831 0.0335058
1591 2 0.525 0.325 0.0741936
1592 1 0.525 0.338169 0.0835058
1593 1 0.525 0.311831 0.0835058
451 2 0.525 0.375 0.0241936
452 1 0.525 0.388169 0.0335058
453 1 0.525 0.361831 0.0335058
1651 2 0.525 0.375 0.0741936
1652 1 0.525 0.388169 0.0835058
1653 1 0.525 0.361831 0.0835058
394 2 0.575 0.325 0.0241936
395 1 0.575 0.338169 0.0335058
396 1 0.575 0.311831 0.0335058
1594 2 0.575 0.325 0.0741936
1595 1 0.575 0.338169 0.0835058
1596 1 0.575 0.311831 0.0835058
454 2 0.575 0.375 0.0241936
455 1 0.575 0.388169 0.0335058
456 1 0.575 0.361831 0.0335058
1654 2 0.575 0.375 0.0741936
1655 1 0.575 0.388169 0.0835058
1656 1 0.575 0.361831 0.0835058
397 2 0.625 0.325 0.0241936
398 1 0.625 0.338169 0.0335058
399 1 0.625 0.311831 0.0335058
1597 2 0.625 0.325 0.0741936
1598 1 0.625 0.338169 0.0835058
1599 1 0.625 0.311831 0.0835058
457 2 0.625 0.375 0.0241936
458 1 0.625 0.388169 0.0335058
459 1 0.625 0.361831 0.0335058
1657 2 0.625 0.375 0.0741936
1658 1 0.625 0.388169 0.0835058
1659 1 0.625 0.361831 0.0835058
400 2 0.675 0.325 0.0241936
401 1 0.675 0.338169 0.0335058
402 1 0.675 0.311831 0.0335058
1600 2 0.675 0.325 0.0741936
1601 1 0.675 0.338169 0.0835058
1602 1 0.675 0.311831 0.0835058
460 2 0.675 0.375 0.0241936
461 1 0.675 0.388169 0.0335058
462 1 0.675 0.361831 0.0335058
1660 2 0.675 0.375 0.0741936
1661 1 0.675 0.388169 0.0835058
1662 1 0.675 0.361831 0.0835058
403 2 0.725 0.325 0.0241936
404 1 0.725 0.338169 0.0335058
405 1 0.725 0.311831 0.0335058
1603 2 0.725 0.325 0.0741936
1604 1 0.725 0.338169 0.0835058
1605 1 0.725 0.311831 0.0835058
463 2 0.725 0.375 0.0241936
464 1 0.725 0.388169 0.0335058
465 1 0.725 0.361831 0.0335058
1663 2 0.725 0.375 0.0741936
1664 1 0.725 0.388169 0.0835058
1665 1 0.725 0.361831 0.0835058
406 2 0.775 0.325 0.0241936
407 1 0.775 0.338169 0.0335058
408 1 0.775 0.311831 0.0335058
1606 2 0.775 0.325 0.0741936
1607 1 0.775 0.338169 0.0835058
1608 1 0.775 0.311831 0.0835058
466 2 0.775 0.375 0.0241936
467 1 0.775 0.388169 0.0335058
468 1 0.775 0.361831 0.0335058
1666 2 0.775 0.375 0.0741936
1667 1 0.775 0.388169 0.0835058
1668 1 0.775 0.361831 0.0835058
409 2 0.825 0.325 0.0241936
410 1 0.825 0.338169 0.0335058
411 1 0.825 0.311831 0.0335058
1609 2 0.825 0.325 0.0741936
1610 1 0.825 0.338169 0.0835058
1611 1 0.825 0.311831 0.0835058
469 2 0.825 0.375 0.0241936
470 1 0.825 0.388169 0.0335058
471 1 0.825 0.361831 0.0335058
1669 2 0.825 0.375 0.0741936
1670 1 0.825 0.388169 0.0835058
1671 1 0.825 0.361831 0.0835058
412 2 0.875 0.325 0.0241936
413 1 0.875 0.338169 0.0335058
414 1 0.875 0.311831 0.0335058
1612 2 0.875 0.325 0.0741936
1613 1 0.875 0.338169 0.0835058
1614 1 0.875 0.311831 0.0835058
472 2 0.875 0.375 0.0241936
473 1 0.875 0.388169 0.0335058
474 1 0.875 0.361831 0.0335058
1672 2 0.875 0.375 0.0741936
1673 1 0.875 0.388169 0.0835058
1674 1 0.875 0.361831 0.0835058
415 2 0.925 0.325 0.0241936
416 1 0.925 0.338169 0.0335058
417 1 0.925 0.311831 0.0335058
1615 2 0.925 0.325 0.0741936
1616 1 0.925 0.338169 0.0835058
1617 1 0.925 0.311831 0.0835058
475 2 0.925 0.375 0.0241936
476 1 0.925 0.388169 0.0335058
477 1 0.925 0.361831 0.0335058
1675 2 0.925 0.375 0.0741936
1676 1 0.925 0.388169 0.0835058
1677 1 0.925 0.361831 0.0835058
418 2 0.975 0.325 0.0241936
419 1 0.975 0.338169 0.0335058
420 1 0.975 0.311831 0.0335058
1618 2 0.975 0.325 0.0741936
1619 1 0.975 0.338169 0.0835058
1620 1 0.975 0.311831 0.0835058
478 2 0.975 0.375 0.0241936
479 1 0.975 0.388169 0.0335058
480 1 0.975 0.361831 0.0335058
1678 2 0.975 0.375 0.0741936
1679 1 0.975 0.388169 0.0835058
1680 1 0.975 0.361831 0.0835058
481 2 0.025 0.425 0.0241936
482 1 0.025 0.438169 0.0335058
483 1 0.025 0.411831 0.0335058
1681 2 0.025 0.425 0.0741936
1682 1 0.025 0.438169 0.0835058
1683 1 0.025 0.411831 0.0835058
541 2 0.025 0.475 0.0241936
542 1 0.025 0.488169 0.0335058
543 1 0.025 0.461831 0.0335058
1741 2 0.025 0.475 0.0741936
1742 1 0.025 0.488169 0.0835058
1743 1 0.025 0.461831 0.0835058
484 2 0.075 0.425 0.0241936
485 1 0.075 0.438169 0.0335058