
variable systemNsize equal 15
variable rndSeed equal 1234
variable Nrun equal 500000
variable Nstab equal 2000
variable NdumpStats equal 10
variable NdumpFrames equal 1000
variable Text equal 298.0
variable Pext equal 1.0

units real
    # g/mol, A, fs, Kcal/mol, K, atm, g/cm^3
atom_style full
read_data SPCE.data
  orthogonal box = (0 0 0) to (3.1 3.1 3.1)
  1 by 2 by 3 MPI processor grid
  reading atoms ...
  3 atoms
  scanning bonds ...
  2 = max bonds/atom
  scanning angles ...
  1 = max angles/atom
  reading bonds ...
  2 bonds
  reading angles ...
  1 angles
  2 = max # of 1-2 neighbors
  1 = max # of 1-3 neighbors
  1 = max # of 1-4 neighbors
  2 = max # of special neighbors
  special bonds CPU = 0.000545979 secs
  read_data CPU = 0.00305414 secs

replicate ${systemNsize} ${systemNsize} ${systemNsize}
replicate 15 ${systemNsize} ${systemNsize}
replicate 15 15 ${systemNsize}
replicate 15 15 15
  orthogonal box = (0 0 0) to (46.5 46.5 46.5)
  1 by 2 by 3 MPI processor grid
  10125 atoms
  6750 bonds
  3375 angles
  2 = max # of 1-2 neighbors
  1 = max # of 1-3 neighbors
  1 = max # of 1-4 neighbors
  2 = max # of special neighbors
  special bonds CPU = 0.000442982 secs
  replicate CPU = 0.00200582 secs

include SPCE.pot
# Original model from Berendsen et al, J Phys Chem 91:6269 (1987)
# Charges and geometry are specified in the ".data" file.

mass 1 1.00794 # H
mass 2 15.9994 # O

pair_style lj/cut/coul/dsf 0.05 10.0

#pair_style lj/cut/coul/long 10.0
    # LJ_Rcut (Coul_Rcut)
pair_modify tail yes
    # assumtions and approximations:
    # 1) 3d bulk homogeneous liquid (+)
    # 2) RDF is unity beyond the cutoff
    # 3) It's computed at the begining of the run
    # 4) atoms don't feel additional energy but it's added to the PE etc
#kspace_style pppm 1.0e-5
    # accuracy - desired relative error in forces

pair_coeff 1 1 0.00000 0.000
pair_coeff 1 2 0.00000 0.000
    # TODO - I would put here the sizes of H and O atoms instead of one big LJ repulsion from the O atom. What "e" to choose is still a question.
pair_coeff 2 2 0.65 3.166
    # epsilon, sigma, [LJ_Rcut, [Coul_Rcut]]
    # distance between H and O is 1.0 so 3.166 > 1.0 accounts for the size of a molecule as a whole
    # I guess the major part in forces inside a molecule are indeed due to OH and HOH (angle) bondings, so computing LJ and Coul for them would be practically a waste of time so it may be ommitted. So I see only an optimizational reason to set LJ coefs to 0 for H atoms inside a molecule. However here (as far as I understand) we set all LJ coefs to 0. I understand LJ is a short-rage potential so its contribution can be neglegible compared to Coul, but it's not obvious for me why it actually is.
    # TODO - there might be a more correct way to ommit unnecessary interaction by using special_bond

bond_style harmonic
    # E = k(r-r0)^2
bond_coeff 1 0.0 1.0
    # bondID k r0
    # ? - how does k=0 make sense?
    # Is this to formaly bond atoms but actual bonding is done by rattle?

angle_style harmonic
angle_coeff 1 0.0 109.47
    # ? - same, how does k=0 make sense?


velocity all create ${Text} ${rndSeed}
velocity all create 298 ${rndSeed}
velocity all create 298 1234

fix removeMomentum all momentum 1 linear 1 1 1 angular
    # 1 - adjust the momentum every 1 timesteps
    # linear 1/0 1/0 1/0 - zero the P_x/y/z
    # angular - zero angular momentum (TODO - add "angular" here?)
    # scale - scale velocities after the adjustment so T is conserved (TODO - add "scale" here?)

fix stab_iso all npt temp ${Text} ${Text} $(50.0*dt) iso ${Pext} ${Pext} $(500.0*dt)
fix stab_iso all npt temp 298 ${Text} $(50.0*dt) iso ${Pext} ${Pext} $(500.0*dt)
fix stab_iso all npt temp 298 298 $(50.0*dt) iso ${Pext} ${Pext} $(500.0*dt)
fix stab_iso all npt temp 298 298 50 iso ${Pext} ${Pext} $(500.0*dt)
fix stab_iso all npt temp 298 298 50 iso 1 ${Pext} $(500.0*dt)
fix stab_iso all npt temp 298 298 50 iso 1 1 $(500.0*dt)
fix stab_iso all npt temp 298 298 50 iso 1 1 500
    # Tstart,Tstop = external temperature at start/end of run
    # Tdamp = temperature damping parameter (time units)
    # temp - for thermostat, iso - for barostat

fix stab_constrain all rattle 1.0e-5 100 0 b 1 a 1
  0 = # of size 2 clusters
  0 = # of size 3 clusters
  0 = # of size 4 clusters
  3375 = # of frozen angles
  find clusters CPU = 0.000402927 secs
    # fix ID group-ID shake tol iter N constraint1 value1 ...
    # iter - max # of iterations in each SHAKE solution
    # print SHAKE statistics every N many timesteps (0 = never)
    # b - bonds, a - angles
    # b 1 - bonds of type 1
    # a 1 - bonds of type 1
    # shake adds forces to make the displacement satisfy constraints - e.g. |r_ij|=d
    # rattle does the same and additionally it refines velocities - e.g. (|r|)'_t = 0.
    # *should be defined after other force- and v- modifiers since it doesn't account for them

thermo_style custom step density press temp
thermo ${NdumpStats}
thermo 10
run ${Nstab}
run 2000
Neighbor list info ...
  update every 1 steps, delay 10 steps, check yes
  max neighbors/atom: 2000, page size: 100000
  master list distance cutoff = 12
  ghost atom cutoff = 12
  binsize = 6, bins = 8 8 8
  1 neighbor lists, perpetual/occasional/extra = 1 0 0
  (1) pair lj/cut/coul/dsf, perpetual
      attributes: half, newton on
      pair build: half/bin/newton
      stencil: half/bin/3d/newton
      bin: standard
Per MPI rank memory allocation (min/avg/max) = 10.74 | 11 | 11.13 Mbytes
Step Density Press Temp 
       0    1.0041648    46715.537    299.34416 
      10   0.99760565    38249.271    401.56985 
      20   0.98327955    22230.828    898.03363 
      30   0.97190672    17359.171    1071.7424 
      40   0.96283507    17297.253    899.92568 
      50      0.95389    15282.285    829.20417 
      60   0.94558033    13294.357    796.23905 
      70   0.93836817    12103.183    749.83678 
      80   0.93203116    10964.703    707.13278 
      90   0.92629839    9656.6038    671.93012 
     100    0.9210636    8338.3667    641.51056 
     110   0.91630325    6997.5264     623.6833 
     120    0.9120163    5996.5371    592.95432 
     130   0.90815863    4959.8552    566.02118 
     140   0.90472051     3863.399    549.12793 
     150   0.90171946    2945.0401     528.9311 
     160   0.89914818     2069.019    509.76767 
     170   0.89700439    1293.1788    492.38649 
     180   0.89528032    655.93586    474.85675 
     190    0.8939543    189.34085     458.3128 
     200   0.89298876   -88.677232    437.55048 
     210   0.89233214   -422.58465    425.98777 
     220   0.89196459   -655.88831    411.28628 
     230   0.89186137   -789.94596    393.77347 
     240   0.89199231    -1049.127    388.07422 
     250   0.89235641   -1097.9028     374.8676 
     260    0.8929189   -1083.7491    366.31663 
     270   0.89363492   -1072.7832    355.96643 
     280   0.89447522   -1164.7284    347.43727 
     290   0.89544135   -1348.7035    343.46926 
     300   0.89654988   -1352.7425    334.38864 
     310   0.89778105   -1406.8251    331.93232 
     320   0.89911861   -1353.8768    323.37474 
     330   0.90053312   -1389.1776     318.8792 
     340   0.90201362   -1447.3003    315.55671 
     350   0.90355726   -1429.8053    311.41522 
     360   0.90514225    -1335.496    307.12707 
     370   0.90673461   -1291.7684    307.60798 
     380   0.90831462   -1200.1486    302.20867 
     390   0.90986401   -1205.8275     299.1935 
     400   0.91138491   -1199.2924     297.5797 
     410   0.91288202   -1190.0446    295.11725 
     420   0.91435927    -1231.701     295.7333 
     430   0.91582898   -1219.4941    295.48848 
     440   0.91728713   -1072.9135     293.8516 
     450    0.9186988   -857.84123     289.6783 
     460   0.92002605   -824.79979    290.81079 
     470   0.92127846   -889.62325     294.3061 
     480    0.9224875   -856.59602    294.13847 
     490   0.92365591   -691.98027    290.43032 
     500   0.92475601    -549.6788    289.54857 
     510   0.92576648   -449.55335    289.83616 
     520   0.92668526    -467.6471    291.74859 
     530   0.92753741   -502.20634    291.06405 
     540   0.92835049   -572.09377    297.84073 
     550   0.92914809   -517.54489    298.61016 
     560   0.92992458   -423.19056    295.05539 
     570   0.93066602    -453.9983    297.25069 
     580   0.93138572   -473.04234    298.17941 
     590   0.93209465   -457.17153    299.42711 
     600   0.93279348   -461.62721     302.9086 
     610   0.93348634   -456.19409    303.78103 
     620    0.9341749   -408.29646    302.76688 
     630   0.93484813   -308.09832    299.55956 
     640    0.9354874   -308.39007    300.99469 
     650   0.93609868   -372.41769    303.76854 
     660   0.93670164   -335.65949    301.09447 
     670   0.93729106   -243.67253    297.80547 
     680   0.93784752   -191.34072    297.47152 
     690   0.93836307    -149.2033    296.33536 
     700   0.93883338    -88.78837    296.28676 
     710   0.93925085   -32.908739     294.5374 
     720   0.93961295   -85.854177    295.38729 
     730   0.93994105   -147.82471    296.00136 
     740   0.94025696   -150.15673    297.36809 
     750   0.94056431   -117.13099    294.37677 
     760   0.94085944   -146.30174    293.09186 
     770      0.94115   -172.88687    295.75052 
     780     0.941442   -103.95276    294.34689 
     790   0.94172118    -86.95346     294.0105 
     800   0.94198507   -129.19884    293.80561 
     810   0.94224623   -143.32808    295.97451 
     820   0.94250889   -121.64878    297.20455 
     830    0.9427688   -108.07107    296.26868 
     840   0.94302423   -107.39479    299.60658 
     850   0.94327214   -6.6764514    296.43698 
     860    0.9434909    23.768971    297.41864 
     870   0.94367443    2.0993689    302.63833 
     880    0.9438308     34.68565    302.74808 
     890   0.94396075   -16.676222     303.1252 
     900   0.94407849   -45.033307    303.10725 
     910    0.9441913    19.164679    302.16511 
     920   0.94428591    46.042582    301.20136 
     930   0.94435679    31.864425    300.36877 
     940   0.94441079   0.95606483    299.21921 
     950   0.94445749   -12.940703    298.46739 
     960   0.94450422   -92.705086    299.08578 
     970   0.94457168    -192.6533    300.28052 
     980   0.94468161   -177.03053    298.92105 
     990   0.94482937   -184.66326    295.82876 
    1000   0.94501498   -303.38771    296.89358 
    1010   0.94526409   -418.64548    300.59197 
    1020   0.94559733   -381.80486    299.51386 
    1030   0.94599856   -286.47744     297.5101 
    1040   0.94643491   -198.73234    296.95081 
    1050   0.94687656    -80.19866    295.86529 
    1060   0.94729151     16.06366    296.56896 
    1070    0.9476548    128.71567    295.18749 
    1080   0.94794041    289.65545    289.66109 
    1090   0.94811875    307.90843    290.12006 
    1100   0.94819136    317.53764    290.98699 
    1110   0.94816968    255.93618      295.906 
    1120   0.94807617    244.37566    294.71175 
    1130   0.94792744    172.41286    293.62941 
    1140   0.94774918    22.868354    297.71103 
    1150    0.9475807   -42.127588    296.52313 
    1160   0.94744388   -145.86284    299.26739 
    1170   0.94735936    -154.8678    299.63893 
    1180   0.94732829    -168.5958     301.2162 
    1190   0.94734692   -167.23348    301.90138 
    1200   0.94741101   -161.74339    303.60562 
    1210   0.94751219   -80.111994     301.7778 
    1220   0.94763188   -175.03927    305.13381 
    1230   0.94778795   -267.48135    305.09839 
    1240   0.94800389   -290.34121    302.25965 
    1250   0.94828016   -264.12588    302.67273 
    1260   0.94860249   -156.45983    298.52792 
    1270   0.94893945   -67.247806    294.56965 
    1280    0.9492658   -63.551585    294.05928 
    1290   0.94958126   -127.69431    296.20132 
    1300   0.94990442   -234.19004    299.22065 
    1310   0.95026455   -375.57907    301.77408 
    1320   0.95069577   -426.87673    301.99675 
    1330   0.95120412   -306.16954    298.54963 
    1340   0.95175239    -187.7907    298.06522 
    1350   0.95230131   -46.911048    293.60043 
    1360   0.95281598    3.2595837     289.7389 
    1370   0.95328707   -92.717011    290.45121 
    1380   0.95374108   -188.63503     291.8871 
    1390   0.95420562   -256.53532    295.55834 
    1400    0.9546988   -288.76042    300.59538 
    1410   0.95522116    -106.9227    296.67234 
    1420   0.95572551    79.573113    297.75728 
    1430   0.95616036    237.47091    297.67877 
    1440   0.95649301     233.8201    299.54435 
    1450   0.95672644    293.47314    300.64622 
    1460   0.95685444    406.17647     298.4011 
    1470   0.95686059    364.91458    300.77934 
    1480    0.9567632     325.7353    300.48304 
    1490   0.95658284    301.11376    297.81744 
    1500   0.95633586     223.8096    297.89023 
    1510   0.95604778    130.08883      299.756 
    1520   0.95574762    80.000837    298.95149 
    1530   0.95545203    31.543391    298.99333 
    1540   0.95517391   -9.7691346    298.89486 
    1550   0.95492208    -23.63657    296.67484 
    1560   0.95469992   -64.464762    295.83059 
    1570   0.95451525   -108.50587    297.90204 
    1580   0.95437776   -170.73306    299.39209 
    1590   0.95430029   -248.74757    300.85208 
    1600   0.95429912    -289.8042    301.07897 
    1610   0.95437714   -200.50364    297.56211 
    1620    0.9545075    -145.2174    296.61579 
    1630   0.95466814   -97.165492    294.87737 
    1640   0.95484404    -76.10879    295.02984 
    1650   0.95502755   -58.819712    298.22098 
    1660   0.95520986    68.914283    296.02024 
    1670      0.95536    133.07375    296.24572 
    1680   0.95546299    92.144705    297.83059 
    1690    0.9555296    132.43623     294.2825 
    1700   0.95555492    156.18382    296.20232 
    1710   0.95553251    214.90582    296.00189 
    1720   0.95545156    259.82514    293.75869 
    1730   0.95530687    192.12692     296.1359 
    1740   0.95511928    93.226094    300.30043 
    1750   0.95491851     41.81836    300.79892 
    1760    0.9547197     65.60108    300.59349 
    1770   0.95451408    224.43455     296.1069 
    1780   0.95426306    291.29035    294.47207 
    1790    0.9539535    127.11176    300.41936 
    1800   0.95362743    31.341962    300.76559 
    1810    0.9533181   -84.428282    302.45608 
    1820   0.95305525   -159.60852    302.90555 
    1830   0.95285587    -138.6793    301.10738 
    1840   0.95271087   -92.408563    299.71747 
    1850   0.95260252   -38.400057    298.33152 
    1860   0.95251385   -14.713214    296.45492 
    1870   0.95243812   -72.341658     298.2317 
    1880   0.95238723   -92.043136    296.97872 
    1890   0.95236675   -97.308423    298.85354 
    1900   0.95237317   -29.719027    297.91678 
    1910   0.95238917    1.7458933    294.81667 
    1920   0.95240551   -34.061868    295.70548 
    1930   0.95243237   -170.74818    300.98003 
    1940   0.95250343   -248.92167    302.94251 
    1950   0.95263857   -213.42496    300.36888 
    1960   0.95282546   -159.49393    299.81044 
    1970   0.95304402   -46.061484    298.13663 
    1980   0.95326269    42.984322     295.9929 
    1990   0.95345844    16.819237    295.85752 
    2000   0.95363928   -77.458115     298.2269 
Loop time of 38.5425 on 6 procs for 2000 steps with 10125 atoms

Performance: 4.483 ns/day, 5.353 hours/ns, 51.891 timesteps/s
99.9% CPU use with 6 MPI tasks x 1 OpenMP threads

MPI task timing breakdown:
Section |  min time  |  avg time  |  max time  |%varavg| %total
---------------------------------------------------------------
Pair    | 30.6       | 32.629     | 33.785     |  19.7 | 84.66
Bond    | 0.0017323  | 0.0019555  | 0.0025427  |   0.6 |  0.01
Neigh   | 2.0063     | 2.0077     | 2.0088     |   0.1 |  5.21
Comm    | 0.87624    | 2.0323     | 4.0553     |  79.0 |  5.27
Output  | 0.0060291  | 0.0064691  | 0.0084887  |   1.1 |  0.02
Modify  | 1.7761     | 1.7777     | 1.7816     |   0.1 |  4.61
Other   |            | 0.08725    |            |       |  0.23

Nlocal:    1687.5 ave 1704 max 1668 min
Histogram: 1 0 0 1 1 0 1 0 1 1
Nghost:    11241 ave 11254 max 11216 min
Histogram: 1 0 0 0 0 0 2 0 2 1
Neighs:    582882 ave 610213 max 553622 min
Histogram: 1 1 0 0 0 1 1 1 0 1

Total # of neighbors = 3497291
Ave neighs/atom = 345.411
Ave special neighs/atom = 2
Neighbor list builds = 117
Dangerous builds = 12
unfix stab_iso
unfix stab_constrain

reset_timestep 0
fix iso all npt temp ${Text} ${Text} $(100.0*dt) iso ${Pext} ${Pext} $(1000.0*dt)
fix iso all npt temp 298 ${Text} $(100.0*dt) iso ${Pext} ${Pext} $(1000.0*dt)
fix iso all npt temp 298 298 $(100.0*dt) iso ${Pext} ${Pext} $(1000.0*dt)
fix iso all npt temp 298 298 100 iso ${Pext} ${Pext} $(1000.0*dt)
fix iso all npt temp 298 298 100 iso 1 ${Pext} $(1000.0*dt)
fix iso all npt temp 298 298 100 iso 1 1 $(1000.0*dt)
fix iso all npt temp 298 298 100 iso 1 1 1000
#fix iso all nvt temp ${Text} ${Text} $(100.0*dt)
fix constrain all rattle 1.0e-5 100 0 b 1 a 1
  0 = # of size 2 clusters
  0 = # of size 3 clusters
  0 = # of size 4 clusters
  3375 = # of frozen angles
  find clusters CPU = 0.00072813 secs

thermo_style custom step density etotal press temp
thermo_modify flush yes
    # insures the output is dumped in the file and not buffered or something
thermo ${NdumpStats}
thermo 10
dump trj all atom ${NdumpFrames} wat.lammpstrj
dump trj all atom 1000 wat.lammpstrj

run ${Nrun}
run 500000
Per MPI rank memory allocation (min/avg/max) = 11.81 | 12.13 | 12.19 Mbytes
Step Density TotEng Press Temp 
       0   0.95363928   -35284.383    -120.6166     298.2269 
      10   0.95364401   -35284.609   -93.943873    296.20569 
      20   0.95365579   -35284.215   -35.604613    293.92897 
      30   0.95367053   -35282.107    -23.52811    292.99064 
      40   0.95368789    -35277.56   -120.00157    294.90525 
      50   0.95371427   -35272.194    -248.5976     299.0051 
      60   0.95375793   -35266.301   -224.66549    297.99284 
      70   0.95381811   -35260.247   -150.83339    295.89788 
      80   0.95388941    -35252.91   -77.691955    295.37652 
      90   0.95396689   -35244.331   -58.097067    296.90613 
     100   0.95404863    -35234.08   -22.959881    295.57295 
     110    0.9541326   -35222.346     10.57104    294.83203 
     120   0.95421528   -35208.542    124.43447    294.10688 
     130   0.95428944   -35192.488    167.49567    294.52785 
     140   0.95435194   -35174.543    109.00446    296.23775 
     150   0.95440712   -35156.084   -37.398702    301.70137 
     160   0.95446429   -35139.187   -76.142642    302.87828 
     170   0.95452674   -35125.383   -7.2179544    301.38888 
     180   0.95458996   -35114.244    52.989842     300.7423 
     190   0.95464948   -35105.472    102.57152     299.3715 
     200   0.95470172   -35098.501    117.96279    300.32073 
     210   0.95474581   -35093.594    64.637424    300.76056 
     220   0.95478551   -35090.194   -5.8935292    299.41148 
     230   0.95482568   -35088.181   -59.770872    301.64754 
     240   0.95486999   -35087.467   -82.419195    302.51813 
     250   0.95492087   -35089.148   -140.04997    304.71569 
     260   0.95498146   -35092.067   -98.482118    301.71853 
     270   0.95505065   -35096.751    -147.5715    302.65036 
     280   0.95513075   -35102.612   -182.31996    303.51796 
     290   0.95522387   -35109.449   -127.12782    302.12195 
     300   0.95532665   -35117.303   -82.366145    303.00128 
     310   0.95543565   -35125.994   -32.849278    302.07736 
     320   0.95554786   -35135.471    -24.50449    301.80425 
     330   0.95566177   -35145.202    24.284955    301.18879 
     340   0.95577497   -35155.165    13.451556    299.98137 
     350   0.95588818   -35165.189   -82.272161     302.3191 
     360   0.95600752   -35175.703   -137.66795    305.45255 
     370   0.95613682   -35187.607   -87.358844    302.57343 
     380   0.95627291   -35200.432    4.0954824    300.39479 
     390   0.95640909   -35212.176    79.129869     299.4833 
     400   0.95654051   -35223.771    75.436057    299.90866 
     410   0.95666704   -35234.357    70.762922    297.66887 
     420   0.95678918   -35243.495    57.472991    296.06206 
     430   0.95690772   -35251.369    19.131943    297.85748 
     440   0.95702512   -35258.185    -3.184257    298.93617 
     450   0.95714299   -35264.756   -5.1216835     298.0614 
     460    0.9572621   -35270.655   -32.028827    298.47123 
     470   0.95738279   -35276.098    79.194539    295.93367 
     480   0.95749847   -35281.172    152.05593    297.54314 
     490   0.95760329   -35285.447    232.94725     297.5942 
     500   0.95769148   -35289.121    295.99859    295.10533 
     510   0.95775938   -35292.382     202.7354    298.91553 
     520   0.95781093   -35294.838     296.8159    295.64701 
     530   0.95784125   -35297.088    379.37815    295.07143 
     540   0.95784404   -35298.031    397.00069    296.44916 
     550    0.9578173   -35297.884    440.28255    293.45659 
     560   0.95775913   -35296.668    331.82366    296.93226 
     570   0.95767563   -35294.448    260.48541    297.31159 
     580    0.9575729   -35292.001    188.57511    297.29275 
     590   0.95745575   -35289.042    137.79005    296.55508 
     600   0.95732784   -35285.082    97.291551    296.28196 
     610   0.95719301   -35280.601   -36.681589    298.56528 
     620   0.95705961   -35275.812   -93.382767    298.87676 
     630   0.95693213   -35270.772   -69.352361    295.92943 
     640   0.95680969   -35264.583   -93.847082    296.57516 
     650   0.95669383     -35256.9    -166.6419    298.43102 
     660   0.95658979   -35248.407   -249.92735    300.17368 
     670   0.95650289   -35239.001   -195.54878    296.56279 
     680    0.9564308   -35228.515    -194.3567    298.49318 
     690   0.95637207   -35216.507   -142.70565     299.8793 
     700   0.95632372   -35203.783    -93.42078    299.52362 
     710   0.95628254   -35190.378   -129.70082    302.97802 
     720   0.95624956   -35177.313   -13.451922    300.01275 
     730   0.95621762   -35163.748    131.53778    295.76044 
     740   0.95617736   -35149.332    67.261183    302.37067 
     750   0.95613097   -35134.586    71.116496    303.26487 
     760   0.95607894    -35121.47    92.620719     303.7959 
     770   0.95602004   -35110.963    65.955389    306.40876 
     780   0.95595517   -35103.324    139.85993    304.70425 
     790   0.95587959   -35098.228    236.40005    301.51233 
     800   0.95578731   -35095.032    172.47411    304.80615 
     810   0.95568085   -35093.778    184.39298    302.90237 
     820   0.95556037   -35094.656    171.75645    301.44725 
     830   0.95542725   -35097.313    46.741398    302.55956 
     840   0.95528914   -35101.713   -4.8282994    301.28825 
     850   0.95515065   -35108.447    -71.68297    302.05101 
     860   0.95501643   -35117.884   -131.68705    301.21171 
     870   0.95489032   -35129.376   -64.930816    295.32364 
     880   0.95476848   -35141.995   -37.069647    296.32764 
     890   0.95464907   -35155.853   -121.70517     299.1153 
     900   0.95453758   -35172.038   -193.71979    298.79847 
     910   0.95443893   -35189.941   -189.02826    297.27914 
     920   0.95435345   -35208.796   -195.19074     295.4836 
     930   0.95428226   -35227.696   -258.82442    295.16945 
     940   0.95422923   -35245.048   -242.52267    292.34118 
     950   0.95419416   -35260.056   -279.69472    295.69236 
     960   0.95417923   -35273.169   -316.32293    296.83913 
     970   0.95418772   -35284.707   -348.95936    296.66202 
     980   0.95422217   -35294.724   -368.38919    296.64877 
     990   0.95428357   -35302.594    -292.3134    293.44038 
    1000   0.95436839   -35308.992   -333.41093    297.49467 
    1010   0.95447786   -35313.331   -260.66911    294.53209 
    1020   0.95460839   -35315.993   -219.13412    292.88086 
    1030   0.95475727   -35316.714   -290.58514    296.46467 
    1040   0.95492886    -35316.58   -328.46319    297.54519 
    1050   0.95512679   -35316.431   -351.45894    297.59709 
    1060   0.95535212   -35316.176   -267.48527    297.70756 
    1070   0.95559984   -35315.854   -164.26501    299.12804 
    1080   0.95586251   -35315.911   -48.005903    296.12088 
    1090   0.95613274   -35315.357   -45.637484      297.471 
    1100   0.95640916   -35314.958   -72.757296    300.87669 
    1110   0.95669352   -35315.088   -32.000901    298.53683 
    1120   0.95698356   -35315.624    3.0456082     298.3571 
    1130   0.95727597   -35316.331    113.15318    298.27435 
    1140   0.95756314   -35317.218    227.70753     297.3629 
    1150   0.95783744   -35317.674    227.01257     297.5902 
    1160   0.95809742    -35317.83    267.24613    296.51963 
    1170   0.95834086   -35317.813    237.44993    300.38043 
    1180   0.95856855   -35318.258    271.17792    299.71537 
    1190   0.95877847   -35319.482     341.3168     297.0822 
    1200   0.95896556   -35320.406     373.9952    298.14692 
    1210   0.95912706   -35321.208    374.31291    299.45286 
    1220   0.95926252   -35322.628    390.98775    299.05927 
    1230   0.95937061   -35324.439    400.96672    298.41573 
    1240   0.95945021   -35326.318    398.60548    297.21973 
    1250    0.9595017   -35328.354    356.84774    296.74983 
    1260   0.95952735   -35329.391    334.54352    295.00646 
    1270   0.95952909   -35329.648    233.98831     297.1101 
    1280   0.95951327   -35329.692    152.44363    300.49196 
    1290   0.95948486   -35330.451      229.757    298.24686 
    1300   0.95943992   -35331.337    231.55441    297.29204 
    1310   0.95937833   -35332.321     99.63238    298.53826 
    1320   0.95930818   -35333.499    35.364146    298.50673 
    1330   0.95923359   -35335.042    116.88468    295.72209 
    1340   0.95914987   -35336.053    169.32725    294.65978 
    1350   0.95905291   -35336.449    137.95495    298.49389 
    1360   0.95894408   -35336.532    136.97339    297.76581 
    1370   0.95882421   -35336.631    100.30376    297.46846 
    1380   0.95869524   -35336.841    70.784204    298.23715 
    1390   0.95855845   -35336.718    158.95057    295.80546 
    1400   0.95840784   -35335.992    274.50037    294.71612 
    1410   0.95823486   -35333.389    333.15187    293.57575 
    1420   0.95803594   -35329.159    185.07603    295.12755 
    1430   0.95782129   -35323.053   -83.972166     298.8338 
    1440   0.95760895   -35316.111   -212.43202     299.0147 
    1450   0.95740904   -35309.349   -257.96459    302.38383 
    1460   0.95722413   -35303.627   -131.12526    300.49746 
    1470   0.95704647   -35298.983   -6.2934497    297.37361 
    1480   0.95686729   -35293.946    17.269772    297.08291 
    1490   0.95668424   -35288.104    10.988476    296.81801 
    1500    0.9564977   -35282.024   -21.901472      299.267 
    1510   0.95630944   -35275.835    3.8029268    297.35001 
    1520   0.95611774    -35269.27    81.320546    294.24531 
    1530   0.95591741   -35260.834    113.55033    292.24479 
    1540   0.95570624   -35250.241    50.420821    292.97033 
    1550   0.95548799   -35237.423   -36.400184    296.04422 
    1560   0.95526919   -35223.566   -162.76614    297.95816 
    1570   0.95505891   -35209.681   -266.56989    296.42299 
    1580   0.95486495   -35195.755    -327.8504    297.98876 
    1590   0.95469179   -35182.365   -348.34891    299.21095 
    1600   0.95454217   -35169.845   -409.52304    298.53049 
    1610   0.95442083   -35158.511    -505.2889    300.54942 
    1620    0.9543342   -35148.543    -497.2343    301.67642 
    1630    0.9542827   -35140.518   -430.02142    301.95483 
    1640   0.95426168   -35134.314   -265.77299    298.72757 
    1650   0.95426003   -35128.962   -67.149373    296.73626 
    1660   0.95426304   -35123.006    137.81503     292.8209 
    1670   0.95425726   -35115.635     131.6518    294.66899 
    1680   0.95424228   -35107.056    -2.104208    297.40454 
    1690   0.95422759   -35098.156   -176.01721    300.36984 
    1700   0.95422523   -35090.767   -249.30238    302.92825 
    1710   0.95424078   -35084.656   -183.63515    299.14395 
    1720   0.95427124   -35079.965   -205.79792    301.38453 
    1730   0.95431699   -35076.169   -184.65148     301.5563 
    1740   0.95437733    -35073.62   -120.05335    300.12765 
    1750   0.95444833   -35072.395   -93.598804    301.85203 
    1760   0.95452761   -35072.627   -59.945988    302.79221 
    1770   0.95461332   -35074.721   -43.211955    303.21685 
    1780   0.95470435   -35079.019   -54.421848    303.35929 
    1790   0.95480129   -35085.641   -35.791744    300.26361 
    1800   0.95490335   -35094.098   -59.190528    300.67829 
    1810   0.95501209   -35103.893   -90.000135    301.18134 
    1820   0.95512966   -35115.736   -89.516157    301.07532 
    1830   0.95525637    -35129.48   -71.652267    300.87962 
    1840   0.95539221   -35145.299   -160.49551    303.16517 
    1850   0.95554292   -35163.707   -232.44882    302.24043 
    1860   0.95571389   -35183.025   -203.48838    299.58623 
    1870   0.95590416   -35202.074   -187.53528    298.70805 
    1880   0.95611293   -35219.632   -191.90102    298.28354 
    1890   0.95634089    -35235.22   -216.32393    300.46766 
    1900   0.95658926   -35248.849   -121.54808    298.90426 
    1910   0.95685262   -35259.781   -33.798448    296.75144 
    1920   0.95712542   -35268.295   -64.005107    297.36389 
    1930   0.95740904   -35274.726   -83.434938     298.7129 
    1940    0.9577046    -35280.21   -18.568106    299.60909 
    1950   0.95800797   -35285.244    61.612469    299.95367 
    1960   0.95831333   -35290.335    148.73119    298.47159 
    1970   0.95861453   -35294.605    218.24082    297.72743 
    1980   0.95890629   -35298.912    246.28761     300.0523 
    1990   0.95918504   -35302.946    344.70606    297.57949 
    2000   0.95944509   -35306.872    305.20382    299.57065 
    2010   0.95968685   -35311.014    347.86469    298.89449 
    2020   0.95990728   -35315.239    468.17813    295.47371 
    2030   0.96009833   -35318.926    462.21985    298.67936 
    2040   0.96025833   -35322.393    490.14185    296.97908 
    2050   0.96038518   -35325.065    546.04017    291.41783 
    2060   0.96047532   -35326.322    433.45521    296.24269 
    2070   0.96053402   -35326.501    402.72765    298.01564 
    2080   0.96056362   -35325.675    445.33101    293.17035 
    2090   0.96056242   -35324.103    280.94821    297.49258 
    2100   0.96053964   -35321.525    173.29319    299.55763 
    2110   0.96050264   -35319.398      198.325    297.74284 
    2120   0.96045018   -35317.186    243.84709    295.67275 
    2130   0.96037878   -35314.235    281.66267    293.78973 
    2140   0.96028536   -35309.416    267.15837    294.76631 
    2150   0.96017107   -35302.832    113.80516    298.72101 
    2160   0.96004614   -35296.057   -51.428536    301.62397 
    2170    0.9599214   -35289.297   -27.292555    299.27639 
    2180   0.95979691   -35283.602   -30.998107    300.90904 
    2190   0.95967155   -35277.793    46.083777    297.43355 
    2200   0.95954093   -35271.481    84.717963    296.37838 
    2210   0.95940185   -35264.407     61.87196    300.11335 
    2220   0.95925496   -35256.773    118.17501    299.17047 
    2230   0.95909698   -35249.494    138.87856    300.06414 
    2240   0.95892547   -35242.121    176.96738    299.98733 
    2250   0.95873803   -35234.637    191.84541    300.31086 
    2260   0.95853281   -35226.921    231.79079     298.1846 
    2270   0.95830759   -35219.263    181.71443    299.69972 
    2280    0.9580652   -35211.365    91.390492    301.55834 
    2290   0.95781112    -35203.06    122.18725    297.17911 
    2300   0.95754501   -35194.172    27.065337    298.32608 
    2310   0.95727288   -35184.106   -134.95902    300.44074 
    2320   0.95700606   -35173.875   -218.45664    300.30153 
    2330   0.95675123   -35163.547   -267.47515    302.10471 
    2340   0.95651203   -35153.932   -289.10393    303.03788 
    2350   0.95629071   -35145.679   -312.87698    304.63945 
    2360    0.9560885   -35139.136   -203.31245    299.90366 
    2370   0.95589908   -35132.716   -106.59674    296.06261 
    2380   0.95571555    -35125.79   -101.29702    300.01467 
    2390   0.95553633   -35117.908    -53.20598    300.07299 
    2400   0.95535943   -35110.398   -98.777779     300.3343 
    2410   0.95518796   -35103.457   -199.07106    303.23717 
    2420    0.9550279   -35097.408   -163.63779    301.15268 
    2430   0.95487821   -35092.087    -118.3195    299.08011 
    2440    0.9547354   -35086.869   -70.835976    298.14741 
    2450   0.95459637   -35081.244    -72.92617    300.07891 
    2460   0.95446046   -35075.434   -24.785536    297.61757 
    2470   0.95432483   -35068.649    13.984141    296.01026 
    2480   0.95418709   -35060.618   -27.630505    298.94978 
    2490   0.95405027   -35051.952   -135.16894    301.29249 
    2500   0.95392215    -35043.22   -280.57736    303.79963 
    2510   0.95381284   -35035.838   -337.45775    304.79809 
    2520   0.95372639    -35029.88   -255.54587    301.88736 
    2530   0.95365792   -35025.523   -136.13393    299.51491 
    2540   0.95359859   -35021.616   -10.549388     299.8383 
    2550   0.95353943   -35017.387     93.47114    296.62535 
    2560   0.95347418   -35012.714    4.5707988    299.06241 
    2570   0.95340814   -35008.176   -154.30258     304.4083 
    2580   0.95335163   -35004.671   -127.97286    301.80876 
    2590   0.95330455   -35003.501    -130.1024    302.58046 
    2600   0.95326657   -35003.624   -148.09091    301.98246 
    2610   0.95323915   -35005.412   -163.84805     301.6648 
    2620   0.95322398   -35009.168   -231.30041    302.42881 
    2630   0.95322582   -35015.367    -305.8504    303.48784 
    2640   0.95325016   -35024.849   -357.57936    304.56666 
    2650   0.95330081   -35037.661   -328.50583    302.97673 
    2660   0.95337642   -35053.752   -286.17641    301.88106 
    2670   0.95347438   -35072.562   -289.09579     301.8891 
    2680   0.95359416   -35092.035   -185.77529    296.85274 
    2690      0.95373    -35110.86   -185.74394    298.04671 
    2700   0.95388088   -35128.839   -227.68262    301.65219 
    2710   0.95404919   -35146.534   -149.67219    300.29976 
    2720   0.95422985   -35162.248    5.2681061    294.79767 
    2730   0.95441343   -35175.189   -21.938984    296.16652 
    2740    0.9546006   -35185.655    -120.3404    299.70571 
    2750    0.9547979   -35195.227   -163.09793    300.40267 
    2760   0.95500938   -35204.742   -218.34054    302.08823 
    2770   0.95523782   -35214.277   -122.76319    298.95934 
    2780    0.9554771   -35223.205    41.877699    296.91713 
    2790    0.9557153   -35231.164    182.77278    298.34994 
    2800   0.95594219   -35238.335    274.03495    297.47698 
    2810   0.95615155   -35244.748    224.36205    297.95764 
    2820    0.9563467   -35251.253     54.99877    301.32431 
    2830   0.95653771   -35257.749    110.45771    298.04066 
    2840   0.95672172    -35264.18     244.7448    296.94191 
    2850   0.95688968   -35269.999    265.11915     296.9326 
    2860   0.95703983   -35275.302    179.91502    296.61816 
    2870   0.95717804   -35280.683    65.107919    299.63273 
    2880   0.95731143    -35286.06    78.364062    298.69612 
    2890   0.95744041   -35291.931    52.328284    299.72287 
    2900     0.957566   -35297.893    80.121197    296.10783 
    2910    0.9576868   -35303.157    87.789267     296.3391 
    2920    0.9578018    -35308.23    97.517741    299.79246 
    2930   0.95790936   -35313.398    225.10952    296.23128 
    2940   0.95800179   -35318.246    276.29396    295.60311 
    2950   0.95807436   -35322.318    297.18617    297.18138 
    2960   0.95812528     -35325.9    320.57468    295.83143 
    2970   0.95815311   -35329.336    311.93627    296.12846 
    2980    0.9581573   -35331.487    402.08889    292.00762 
    2990   0.95813351   -35331.891     301.0985    292.69414 
    3000   0.95808781   -35330.535    87.557945    298.62073 
    3010   0.95803414   -35328.316    24.386294    298.18655 
    3020   0.95797889   -35326.566   -53.665234    299.98631 
    3030    0.9579267   -35324.893   -72.567891    299.24823 
    3040   0.95787993   -35323.969    -126.9641    299.46993 
    3050   0.95784157   -35323.178   -110.92326    297.52275 
    3060   0.95781144   -35321.897   -90.780125    295.58426 
    3070   0.95778816   -35319.675   -124.19887    296.80564 
    3080   0.95777415   -35316.614   -191.78341    299.51009 
    3090    0.9577738   -35313.245   -207.03875    298.62596 
    3100   0.95778925   -35309.543   -244.50048    298.52655 
    3110   0.95782261   -35305.178   -223.07325      297.679 
    3120   0.95787282   -35300.443   -197.41652    299.44039 
    3130   0.95793758   -35295.355   -132.43505     299.3155 
    3140   0.95801234   -35289.429   -8.8009115    295.02547 
    3150   0.95808942   -35282.263   -30.770758    296.99927 
    3160   0.95816973   -35274.047   -144.30585    301.86377 
    3170   0.95826011   -35265.863   -132.83918     300.1403 
    3180   0.95836138   -35257.978    -147.8204     301.0995 
    3190   0.95847376   -35250.757   -104.57663    300.38814 
    3200   0.95859435   -35244.183   -5.8824724    298.71298 
    3210    0.9587167   -35237.777    26.222383    299.51995 
    3220    0.9588384     -35231.6   -16.614474    302.15411 
    3230   0.95896125   -35226.612     58.46405    299.94284 
    3240   0.95908041    -35222.19    170.62935    297.58552 
    3250   0.95918836   -35217.711    171.13068    299.31881 
    3260   0.95928471   -35213.177     123.6436    297.67137 
    3270   0.95937304   -35208.383      30.5097    300.50484 
    3280   0.95945906    -35204.16     7.027333     303.3131 
    3290   0.95954423   -35201.612    103.33945    301.37915 
    3300   0.95962268   -35201.247    120.14322    306.37566 
    3310   0.95969161   -35203.587    250.29514    304.97768 
    3320   0.95974251   -35208.906    414.60099     300.2753 
    3330   0.95976366   -35216.014    493.76079    299.90552 
    3340   0.95974887   -35224.609    477.96598    299.58943 
    3350   0.95969936    -35234.67    372.62302    300.48396 
    3360   0.95962192   -35246.068    294.86805    299.89376 
    3370    0.9595222   -35258.933    259.68608    298.04688 
    3380   0.95940303   -35272.358    196.22757    299.55849 
    3390   0.95926861   -35286.772    118.06269    299.22466 
    3400   0.95912521   -35301.706   -3.9279684    298.80259 
    3410   0.95898104   -35316.032   -88.576111    296.37326 
    3420   0.95884299   -35329.882   -191.94172      298.495 
    3430   0.95871713    -35342.57   -135.88487    296.96647 
    3440   0.95860048   -35354.215   -33.690872    293.83786 
    3450   0.95848666   -35363.782   -67.440828    295.83442 
    3460   0.95837677    -35371.64   -38.642878    295.32952 
    3470   0.95826893   -35377.919    23.917426    295.17508 
    3480    0.9581592   -35382.143    38.450896    293.35652 
    3490   0.95804691   -35384.889   -55.692913    295.74956 
    3500   0.95793771   -35386.004   -118.95629    295.15532 
    3510   0.95783735   -35386.113   -222.13376    296.35024 
    3520    0.9577521   -35385.407   -225.84592    295.52077 
    3530   0.95768306   -35384.079   -192.68242     295.4014 
    3540   0.95762767   -35381.426   -138.76715    294.15773 
    3550    0.9575823   -35378.301   -96.100663    297.06877 
    3560   0.95754294   -35373.795    27.848078    295.65094 
    3570   0.95750188   -35368.779    109.43207    293.15705 
    3580   0.95745332   -35362.206    103.46874    293.91201 
    3590   0.95739701   -35354.585    66.274422    294.50533 
    3600   0.95733595   -35345.072   -49.878687    296.07994 
    3610   0.95727832   -35335.513    -174.3522    300.87923 
    3620    0.9572318   -35326.692    -102.0683    297.75961 
    3630    0.9571934    -35318.68   -96.427173    297.30085 
    3640   0.95716221   -35311.333   -139.79705     299.2936 
    3650   0.95714088   -35303.768   -129.03974    296.74144 
    3660   0.95712989   -35297.138   -188.20453    300.89361 
    3670   0.95713155   -35291.289   -108.55545    299.04966 
    3680   0.95714168   -35286.833   -62.443248    299.35162 
    3690   0.95715601   -35283.266    21.964427    299.13478 
    3700   0.95716914   -35280.643    77.125609    300.05722 
    3710   0.95717619   -35278.733    193.73822    298.30051 
    3720   0.95716886   -35277.121    308.57453    298.59456 
    3730    0.9571399    -35276.78    241.41661    301.70472 
    3740   0.95709254   -35276.817     222.4908    297.00607 
    3750   0.95702928   -35277.195    146.05988    299.76955 
    3760   0.95695376   -35277.432    193.68636    297.51218 
    3770   0.95686404   -35277.779    206.92586    297.18444 
    3780   0.95675832   -35277.751    234.16431    295.91305 
    3790    0.9566348   -35276.981    231.10726     294.0715 
    3800   0.95649422   -35275.424    103.63707    297.64967 
    3810   0.95634459   -35273.294     16.81896    296.44024 
    3820   0.95619324   -35271.767   -121.99784    299.86016 
    3830   0.95604906   -35270.299   -143.75674    298.08855 
    3840   0.95591498   -35269.388   -153.36056    298.19107 
    3850   0.95579092   -35268.614   -105.09295    295.82525 
    3860   0.95567438   -35267.081   -104.18126     294.8858 
    3870     0.955565   -35265.061   -175.65966    299.08848 
    3880   0.95546685   -35262.905   -116.22208    298.53175 
    3890   0.95537638   -35260.822    10.157614    295.22956 
    3900   0.95528521   -35258.104    62.445376    295.39576 
    3910   0.95518942   -35254.784   -11.434294    298.32918 
    3920   0.95509399   -35251.574   -130.15424    301.13324 
    3930   0.95500687   -35249.503   -148.14746    301.18264 
    3940   0.95492933    -35248.84   -47.462271    299.33313 
    3950    0.9548541   -35248.379     144.6118    296.32199 
    3960   0.95476798   -35247.506    308.86619    293.33769 
    3970   0.95465954   -35244.996    323.03703    293.39765 
    3980   0.95452732    -35240.41     201.8287    294.94319 
    3990    0.9543789   -35234.231    148.63386    293.94182 
    4000   0.95421861   -35226.418    105.13735    295.03386 
    4010   0.95404931   -35216.917    79.202144    296.53556 
    4020   0.95387263   -35206.422    93.192743    298.27248 
    4030   0.95368793   -35195.374    85.567587    298.72419 
    4040   0.95349558   -35184.023    76.196167    297.50933 
    4050   0.95329659   -35172.147    62.096011    295.66349 
    4060   0.95309209   -35159.183    16.850672    295.52402 
    4070   0.95288568    -35145.21   -121.64149    299.41763 
    4080   0.95268636   -35131.693   -224.02592    303.64972 
    4090   0.95250122   -35120.154   -172.57239    300.27875 
    4100   0.95232854   -35110.548   -196.63422    301.03177 
    4110   0.95216946   -35102.059   -256.42974     302.4827 
    4120   0.95202763   -35095.938   -210.33954    299.82367 
    4130    0.9519004   -35090.381   -120.24795    296.27914 
    4140   0.95178229   -35085.249   -164.95591    299.31784 
    4150   0.95167533   -35080.981   -195.80052    301.72528 
    4160   0.95158158   -35077.727   -130.23389    298.18373 
    4170   0.95149764   -35075.085   -131.91803    297.87499 
    4180   0.95142305   -35072.696   -178.16963    300.25924 
    4190   0.95136115   -35070.947   -259.33044    301.12987 
    4200   0.95131849   -35070.811   -374.69034    301.46036 
    4210   0.95130247   -35071.691    -351.3743    297.16296 
    4220   0.95131318   -35072.342   -388.47129     297.9188 
    4230   0.95135294   -35073.452   -498.64675    304.21392 
    4240   0.95142882   -35076.076   -489.28437    300.95971 
    4250   0.95154199   -35079.896   -510.76413    300.67255 
    4260   0.95169375    -35084.56   -539.53255    303.37568 
    4270   0.95188561   -35090.031   -414.50517    299.28446 
    4280   0.95211052   -35095.985   -365.75722    301.97395 
    4290   0.95236349   -35101.869   -258.67425    300.99535 
    4300   0.95263811   -35107.782   -227.24453    300.51255 
    4310   0.95293181   -35113.153   -257.37462    300.40519 
    4320    0.9532462   -35118.593   -234.33458     300.5298 
    4330   0.95357957   -35123.736   -153.25988    301.77102 
    4340   0.95392534   -35128.998    67.829951    299.65855 
    4350   0.95426855   -35133.808    256.69157    297.91834 
    4360   0.95459557   -35137.723    300.26451    298.76308 
    4370   0.95490283   -35141.786    220.24484    301.23175 
    4380   0.95519488   -35146.214    208.16806    300.95814 
    4390   0.95547221   -35151.486    328.05629    300.20623 
    4400   0.95572618   -35156.943    489.32878    297.98841 
    4410   0.95594603   -35162.232    518.90743    297.35119 
    4420   0.95612858   -35166.637    505.78778    297.27769 
    4430   0.95627512   -35171.319     397.7348    300.09723 
    4440    0.9563926   -35176.375    327.03777    299.73764 
    4450   0.95648687    -35182.08    241.73354    299.12127 
    4460    0.9565634   -35187.861    229.21191    296.35203 
    4470   0.95662341   -35192.836    236.11211    294.37501 
    4480   0.95666704   -35197.625    113.49069    300.45874 
    4490   0.95670116   -35202.667    124.83575    300.09624 
    4500   0.95672642   -35208.758    162.05483    300.24344 
    4510   0.95673928    -35215.68    263.50128    298.44307 
    4520   0.95673289   -35222.996    335.20568    295.83081 
    4530   0.95670276   -35230.026    245.77875    297.81511 
    4540   0.95665441   -35236.896    155.10433    298.59524 
    4550   0.95659351   -35244.028    194.14523    297.42245 
    4560   0.95651828   -35251.194    203.41038    295.99441 
    4570   0.95642808   -35257.429    158.37328    293.49655 
    4580   0.95632607   -35262.401    83.672431    295.17263 
    4590   0.95621666   -35266.348    89.223355    295.52558 
    4600   0.95609994   -35269.435    129.49812     294.3809 
    4610   0.95597344   -35271.609    131.11039    294.74396 
    4620   0.95583691   -35272.102    94.367707    295.20459 
    4630   0.95569305   -35271.763    11.511468    296.01082 
    4640   0.95554791   -35271.097    -116.4009    299.58998 
    4650   0.95540978   -35270.023   -127.57595    297.97622 
    4660   0.95528092   -35269.165   -146.46158    295.79882 
    4670   0.95516227    -35267.23   -167.07128    296.03434 
    4680    0.9550547   -35264.126   -126.12716    298.10986 
    4690   0.95495522   -35260.399   -11.109706    296.37137 
    4700   0.95485678   -35255.484    23.995189    294.70275 
    4710   0.95475644   -35248.093   -3.0380064    294.11666 
    4720   0.95465666   -35238.133   -133.63872    297.51067 
    4730   0.95456538   -35226.022    -193.0017    300.60017 
    4740   0.95448706   -35213.309   -131.70982     300.6321 
    4750   0.95441788   -35200.136   -30.491984    300.48925 
    4760   0.95435043    -35186.77    70.079323    299.25572 
    4770   0.95427868   -35173.797    3.1549046    303.16159 
    4780   0.95420577   -35161.467   -21.566266    302.91312 
    4790    0.9541342   -35151.055   -37.012385    302.23828 
    4800   0.95406493   -35141.554   -49.074014    300.85168 
    4810   0.95399915   -35133.106   -77.649361    298.89013 
    4820   0.95393896   -35125.353   -132.98827    299.75579 
    4830   0.95388771   -35118.462   -114.48144    299.04385 
    4840   0.95384462   -35111.472   -73.004722    298.27843 
    4850   0.95380753   -35104.644   -128.26489    298.76441 
    4860      0.95378   -35098.073   -250.69026    301.79401 
    4870   0.95376992   -35092.357   -269.15794    302.25793 
    4880   0.95377929   -35088.018   -199.44824    299.42235 
    4890   0.95380366   -35084.305   -129.63618    300.02568 
    4900   0.95383775   -35081.153   -65.434518     300.5232 
    4910   0.95387757   -35079.184   -74.579915    300.26833 
    4920    0.9539235   -35077.701   -105.32064    298.14438 
    4930   0.95397837   -35076.406   -185.48507    299.01041 
    4940   0.95404691   -35075.112   -206.76004    301.36201 
    4950   0.95413118   -35075.322   -222.89942    303.85732 
    4960   0.95423161   -35077.255   -115.64525    298.47005 
    4970   0.95434323   -35080.573   -182.90971    300.98238 
    4980   0.95446893   -35086.036   -238.59857    304.55204 
    4990   0.95461189   -35094.303   -74.772093    298.66501 
    5000    0.9547622   -35105.437    46.025402    298.72972 
    5010   0.95491037   -35118.665    110.19961    299.83167 
    5020   0.95505193   -35133.946     147.3419    298.30272 
    5030   0.95518437   -35150.859    128.48226     297.0929 
    5040   0.95530913   -35169.413    15.735781    300.95365 
    5050   0.95543294     -35188.9    5.2578596    298.92082 
    5060   0.95555754   -35208.546    22.171518    298.70331 
    5070   0.95568082   -35227.466    124.67447    297.62951 
    5080    0.9557962   -35243.935    212.84355    294.72783 
    5090   0.95589796     -35258.1    148.67896    298.74494 
    5100   0.95598848   -35270.298    219.80502    297.16949 
    5110    0.9560636   -35280.582    324.82087    294.88465 
    5120   0.95611586   -35288.278    377.71152      294.372 
    5130   0.95614091   -35293.668    392.62087    294.66481 
    5140   0.95613719   -35297.652    387.63281    296.70932 
    5150   0.95610431    -35300.13    424.63851    295.55426 
    5160   0.95604076     -35302.1    344.84197    295.61716 
    5170   0.95595132   -35303.107     216.4826    298.60144 
    5180   0.95584406   -35303.922    208.16215    297.34024 
    5190   0.95572016   -35304.522    245.45263    295.32104 
    5200   0.95557714   -35304.292    245.50446    295.44379 
    5210   0.95541493   -35302.813    176.96802    296.16389 
    5220   0.95523856   -35300.944    24.038293    299.57282 
    5230   0.95505825   -35298.643   -60.985198    297.82251 
    5240   0.95488131   -35297.029   -192.73681    299.57534 
    5250   0.95471575   -35295.499   -201.19985     298.2705 
    5260   0.95456341   -35294.281   -174.87264    297.75788 
    5270   0.95442279   -35293.132   -186.06971    299.32239 
    5280   0.95429435   -35292.144   -162.23033    296.71457 
    5290   0.95417669   -35290.609   -117.41827    294.52218 
    5300   0.95406688   -35287.893   -115.66314    295.30044 
    5310   0.95396443   -35283.699   -140.41771    295.45776 
    5320    0.9538717   -35277.982   -207.90688    297.39092 
    5330   0.95379332   -35271.371   -260.25089    298.08935 
    5340   0.95373361   -35264.224   -309.70473    299.63012 
    5350   0.95369551   -35256.041   -249.91192    297.05451 
    5360   0.95367605    -35246.68   -228.03931    296.50654 
    5370   0.95367376   -35235.485   -294.35741    300.27892 
    5380   0.95369234   -35223.335   -247.75016    298.68091 
    5390   0.95372987   -35210.132   -207.36662    297.57482 
    5400   0.95378375   -35195.481   -230.43187    300.83573 
    5410   0.95385471   -35180.313   -164.55427    299.09626 
    5420   0.95393915   -35165.082   -157.45136    300.73416 
    5430   0.95403639   -35150.238   -173.63502     304.1845 
    5440   0.95414683   -35136.646   -62.826885    299.86363 
    5450   0.95426434   -35124.365   -33.486729    301.19959 
    5460   0.95438516   -35113.187    55.616154    301.20207 
    5470   0.95450374   -35103.236    111.42321    300.91215 
    5480   0.95461585    -35094.89    138.10456    301.37082 
    5490    0.9547191   -35088.004    192.94158    301.00543 
    5500   0.95480922   -35082.075    279.03009    299.82646 
    5510   0.95488014   -35077.621    339.11519    301.30648 
    5520   0.95492643       -35074    444.82003     299.6967 
    5530    0.9549409   -35071.341    499.47168    299.98667 
    5540   0.95491863   -35069.145    530.88297     299.0969 
    5550   0.95485735   -35067.278     504.7718    298.00242 
    5560   0.95475867    -35065.81    376.25644     300.8548 
    5570   0.95463091   -35065.063    238.17232      303.236 
    5580   0.95448346   -35066.102    139.29297    302.86909 
    5590   0.95432398   -35070.146   -15.775725    305.55085 
    5600   0.95416262   -35077.472   -74.008961    305.26028 
    5610   0.95400434    -35089.58    -40.50055    303.13177 
    5620   0.95384646   -35106.404    62.922377    300.43426 
    5630   0.95368237   -35127.278     92.40532    297.60523 
    5640   0.95351018   -35150.565   -48.704853    297.55351 
    5650   0.95334006   -35175.716   -299.02235    298.98143 
    5660   0.95318941   -35200.855   -480.37009    299.05224 
    5670    0.9530715   -35224.576   -537.76409    299.35965 
    5680   0.95299103   -35245.032   -455.00288    295.01819 
    5690   0.95294357   -35260.142   -367.75493    293.39036 
    5700   0.95292296   -35270.161   -312.12749    293.45186 
    5710   0.95292604    -35276.35   -331.01145     293.6241 
    5720   0.95295427   -35279.763   -410.04384    294.60735 
    5730   0.95301345   -35281.595    -490.8638    297.80028 
    5740   0.95310921   -35282.692   -475.91234    297.28676 
    5750   0.95324183   -35283.427   -437.70589    296.14421 
    5760   0.95340894   -35283.432   -375.63717    295.65985 
    5770   0.95360656   -35282.737   -317.10375    296.71328 
    5780   0.95383025   -35281.675   -219.95141    296.03841 
    5790   0.95407392   -35279.536   -156.02432    294.56889 
    5800   0.95433372   -35276.465   -209.31722    297.22621 
    5810   0.95461222   -35272.855   -185.11384    297.88329 
    5820   0.95490838   -35268.854   -115.88424    295.75241 
    5830   0.95521799   -35264.601   -97.244277    297.43958 
    5840   0.95553877   -35259.767   -20.552095    297.61451 
    5850   0.95586524   -35254.333    109.59548    295.70237 
    5860    0.9561887   -35248.108    157.61056    296.74398 
    5870   0.95650505    -35241.54    156.33567    299.25716 
    5880   0.95681395   -35235.114    153.89485    301.49105 
    5890   0.95711483   -35229.631    239.36544    301.64894 
    5900   0.95740143   -35225.411    388.67085    300.23534 
    5910   0.95766331   -35222.142    463.51061    300.41957 
    5920   0.95789377   -35219.429     556.1071    297.34943 
    5930   0.95808708   -35216.869    502.14662    298.69985 
    5940   0.95824593    -35214.49    342.39728    303.80696 
    5950   0.95838075   -35214.419    237.03681    305.73456 
    5960   0.95849927   -35216.972    189.87018    303.26693 
    5970   0.95860625   -35222.663    53.320095    305.11123 
    5980   0.95870912   -35231.278    114.31182    300.69856 
    5990   0.95880531   -35241.847     149.4792    299.44365 
    6000   0.95889233   -35254.923    47.247801    305.20788 
    6010   0.95897519   -35270.832      149.418    301.20621 
    6020   0.95904868   -35289.163    189.61285     301.3346 
    6030   0.95910866   -35308.881    229.27078    300.87333 
    6040    0.9591526    -35328.93    249.54826    300.12853 
    6050   0.95917883   -35348.382    261.91828    299.71399 
    6060   0.95918579   -35365.748    321.61146    296.67788 
    6070   0.95916975   -35380.487    296.40345    296.68388 
    6080   0.95913092   -35391.412    336.54004    292.22639 
    6090    0.9590679   -35399.004    248.77393    294.69966 
    6100   0.95898541   -35404.083    146.78314     296.8249 
    6110   0.95889017   -35407.686    164.38362    294.82008 
    6120   0.95878173   -35409.959    167.97904     294.0677 
    6130   0.95865956   -35410.182    152.42839      291.701 
    6140   0.95852556   -35408.655    26.547692    294.55849 
    6150   0.95838764   -35405.384   -75.090083    293.72894 
    6160   0.95825384   -35400.534    -173.0237     293.6245 
    6170   0.95813005   -35394.235   -137.55736    293.48957 
    6180   0.95801495   -35386.655   -95.893312      293.384 
    6190    0.9579059   -35377.941    -129.6497    297.81501 
    6200   0.95780335   -35368.574    31.753741    294.47249 
    6210   0.95769791   -35358.794    125.54313    293.11511 
    6220   0.95758304   -35347.545    29.158236    296.05983 
    6230   0.95746461   -35336.085    -107.4741    298.87609 
    6240   0.95735241    -35325.39   -204.64902     301.8358 
    6250   0.95725257   -35316.227   -95.641996    296.73537 
    6260   0.95715922   -35307.725   -4.2568343    297.40008 
    6270   0.95706483    -35299.21    61.653298    300.22567 
    6280   0.95696444   -35291.997    120.99322    299.01823 
    6290   0.95685444    -35285.68     99.10624    297.78781 
    6300   0.95673649   -35279.357   -36.716723    297.70634 
    6310   0.95662036   -35274.039   -244.59156    302.40222 
    6320   0.95651873   -35269.893   -194.60749    301.15704 
    6330   0.95643014   -35267.332   -85.232829    299.52568 
    6340   0.95634705   -35265.324   -5.5217487    297.50081 
    6350    0.9562635   -35263.234    59.587328    296.25758 
    6360   0.95617454   -35260.709    82.145104    298.23423 
    6370   0.95607852   -35258.321    55.382629    299.71648 
    6380    0.9559771   -35256.185     22.56069    298.41363 
    6390   0.95587296   -35254.618   -40.281701    299.40461 
    6400   0.95577021   -35253.439   -100.72781     299.5874 
    6410   0.95567384   -35252.787   -175.88044    299.01493 
    6420   0.95558873   -35252.699   -165.26968    299.67521 
    6430   0.95551436   -35252.611   -96.831744    297.59959 
    6440   0.95544677   -35252.939   -90.038621    297.70891 
    6450    0.9553851   -35252.864   -112.09032    295.47846 
    6460   0.95533175   -35251.975   -241.19713     297.9787 
    6470   0.95529484   -35251.188   -304.50571    300.67394 
    6480   0.95527883   -35250.601   -180.26242     297.1984 
    6490   0.95527653   -35250.103   -70.797777     294.9918 
    6500   0.95528009   -35247.948   -40.698345    294.28229 
    6510   0.95528754   -35243.799   -115.14164    295.51163 
    6520   0.95530358   -35237.444   -198.63634      299.103 
    6530   0.95533383   -35229.695   -169.36549    298.71238 
    6540   0.95537725   -35221.286   -115.94966    297.36888 
    6550   0.95543004   -35211.119   -77.329734    297.33252 
    6560   0.95548965   -35199.255   -64.416058    297.75235 
    6570   0.95555493   -35186.244   -58.951986    299.63643 
    6580   0.95562514   -35172.918   -14.787917    299.59384 
    6590   0.95569806   -35159.873   -47.729641    303.98614 
    6600   0.95577492   -35148.416   -22.332274    303.33881 
    6610   0.95585474   -35139.454   -3.9185356    303.07352 
    6620   0.95593562   -35132.407    47.238219    303.34765 
    6630   0.95601358   -35127.119    196.79358    298.71333 
    6640   0.95607882   -35122.786    249.75347    299.67738 
    6650   0.95612661   -35118.815    266.34634    302.11648 
    6660   0.95615466   -35116.317    382.70564     299.4101 
    6670   0.95615545   -35114.554    432.51461     300.2608 
    6680   0.95612413   -35113.368    473.29522    299.69104 
    6690   0.95605745   -35112.988    507.86655    297.84964 
    6700   0.95595271     -35112.8    461.46534    299.40055 
    6710   0.95581219   -35112.936    417.02456    300.61721 
    6720   0.95563827   -35113.713     470.9064    296.31469 
    6730   0.95542805   -35114.463    434.72728    297.04375 
    6740   0.95518329   -35114.398    326.59097    297.67674 
    6750   0.95491185   -35114.421    169.10966    296.30774 
    6760    0.9546252   -35113.875   -40.981082    297.73624 
    6770   0.95433765    -35112.75   -151.45028    298.04852 
    6780   0.95405763    -35111.81   -161.66063    297.54644 
    6790   0.95378674   -35110.452   -186.61176    297.24391 
    6800   0.95352712    -35109.01   -252.95922    299.10897 
    6810   0.95328272    -35107.16    -215.7871    299.24351 
    6820   0.95305223   -35106.084   -209.41843     301.1932 
    6830   0.95283441   -35105.808   -156.95371    300.43252 
    6840   0.95262614   -35106.516    -80.32621    298.31353 
    6850   0.95242193   -35107.759    -14.22176    296.78135 
    6860   0.95221797   -35108.975   -94.159124    298.41923 
    6870   0.95201963   -35110.411   -247.18103    301.87575 
    6880   0.95183709   -35113.092   -273.70833    299.40078 
    6890   0.95167357   -35116.841   -293.62563     298.2052 
    6900   0.95153034     -35121.5   -312.30082    298.21159 
    6910   0.95140885   -35126.706   -331.11834     300.0797 
    6920   0.95131107   -35133.324   -393.34757    301.43033 
    6930   0.95124172    -35142.52   -475.01536    303.22038 
    6940   0.95120591   -35154.406   -397.65028    299.32329 
    6950    0.9511996   -35167.485   -326.98129    295.69417 
    6960   0.95121829   -35180.988    -380.2513    298.16846 
    6970    0.9512645   -35194.493   -344.71757    296.53171 
    6980   0.95133695   -35207.827   -315.86585    297.27147 
    6990   0.95143311   -35220.545   -260.15755    295.71694 
    7000   0.95155018   -35232.553   -297.79031    295.56649 
    7010   0.95169034    -35243.37    -378.2532    298.22646 
    7020   0.95185892    -35254.19   -382.62556    298.62964 
    7030    0.9520571    -35264.83   -369.66119    298.31582 
    7040   0.95228399   -35275.178   -334.81568    297.62143 
    7050   0.95253695   -35284.509   -224.05943    294.43902 
    7060    0.9528087   -35292.145   -133.08301    293.97718 
    7070   0.95309273     -35298.4   -146.19724    297.19209 
    7080   0.95338888   -35303.255   -103.77864    294.51844 
    7090   0.95369472   -35306.974   -53.207997    295.49852 
    7100     0.954006   -35309.826    25.783904    297.59073 
    7110   0.95431709   -35312.115    106.19004    295.66639 
    7120   0.95462285   -35313.929    71.382822    298.45802 
    7130   0.95492389    -35315.56    136.11901    298.82507 
    7140   0.95521601   -35317.409    256.37477    296.32023 
    7150   0.95549078   -35318.522    310.36609    295.81588 
    7160   0.95574413   -35318.957    279.23541    297.98675 
    7170   0.95597713   -35319.449     324.2531    296.99993 
    7180   0.95618694   -35318.977    410.69674    291.54809 
    7190   0.95636922   -35317.196    216.19487    298.86587 
    7200   0.95653543   -35315.021    57.168485    302.92454 
    7210   0.95669645   -35314.057     123.7521    300.51284 
    7220   0.95684891    -35314.99    208.48287    300.53753 
    7230   0.95698675   -35316.268    249.62602    298.15028 
    7240    0.9571073   -35318.124    212.11577    297.67006 
    7250   0.95721251   -35320.356    162.33233    296.83689 
    7260   0.95730638   -35322.752    83.315658    298.42294 
    7270    0.9573944   -35325.979    3.5628745    301.15765 
    7280   0.95748217   -35331.228   -15.880479    299.23093 
    7290   0.95757212   -35338.082   -95.561568    298.61273 
    7300   0.95766944   -35347.124   -178.41625    300.44323 
    7310   0.95777897    -35358.13   -95.233833    297.78126 
    7320   0.95789627   -35370.481   -37.298701    296.97205 
    7330   0.95801715   -35383.744   -51.570892    297.42741 
    7340   0.95814251   -35397.714   -88.958817    297.70588 
    7350    0.9582746   -35411.959   -89.401148    298.20304 
    7360   0.95841307    -35426.68   -13.394842    298.90039 
    7370   0.95855236   -35441.435     139.2055    295.39418 
    7380   0.95868277   -35454.497    186.96479    292.57604 
    7390   0.95880053    -35465.47    126.72219    291.70727 
    7400   0.95890926   -35473.187    80.986359    289.82575 
    7410   0.95901225   -35477.789    50.848105    292.18925 
    7420   0.95911162   -35479.979    18.051339    295.23551 
    7430   0.95920974    -35481.27    5.7297282      296.522 
    7440   0.95930763   -35481.307    23.037552    295.66382 
    7450   0.95940397   -35480.575    75.176559    292.58866 
    7460   0.95949544   -35477.578    90.037825     290.8819 
    7470   0.95958139   -35472.452   -25.778542     295.6089 
    7480   0.95966883   -35465.873   -85.167622    298.75353 
    7490   0.95976179   -35459.089   -2.4895479    297.12619 
    7500   0.95985502   -35451.413    131.10778    293.42771 
    7510   0.95993968   -35442.503    183.79309    294.05501 
    7520   0.96001116   -35431.122    196.63313    294.37599 
    7530   0.96006906   -35418.089    98.422196    298.83869 
    7540   0.96011926   -35405.214    67.179784    300.42945 
    7550   0.96016429   -35392.926     119.3993    298.46855 
    7560    0.9602009   -35381.506    144.96751    298.95794 
    7570   0.96022694   -35370.378    156.65257    297.40619 
    7580    0.9602422   -35359.921    80.103583    299.58197 
    7590   0.96025122   -35350.276    48.377271    300.89907 
    7600   0.96025653   -35341.899    75.365339    298.61794 
    7610   0.96025683   -35334.324    57.665693    297.19948 
    7620   0.96025297   -35327.206     33.75193    299.48599 
    7630   0.96024624   -35320.532    61.059136    299.99418 
    7640   0.96023518   -35314.976    73.355717     300.4796 
    7650   0.96021883   -35310.705     80.97875    298.71451 
    7660   0.96019685   -35307.283    45.765445    299.98433 
    7670   0.96017109   -35304.312    45.809297    300.49749 
    7680   0.96014127    -35302.32    141.74699    298.20639 
    7690    0.9601015   -35301.291    168.60507    300.53229 
    7700   0.96004883   -35300.984    218.34128    299.48995 
    7710   0.95998025    -35301.16    249.21168    297.19474 
    7720   0.95989359   -35301.393    228.05843    296.79228 
    7730    0.9597898    -35300.48    204.96558    295.77842 
    7740   0.95967109    -35299.35    106.91533    300.14694 
    7750   0.95954322   -35298.863    117.27495    298.97245 
    7760   0.95940617   -35298.589    156.69145    296.02492 
    7770   0.95925816   -35297.673     67.99936     295.8763 
    7780   0.95910529   -35295.996   -85.737948    298.21394 
    7790   0.95895753   -35294.343   -145.67112    301.29458 
    7800   0.95881884   -35293.448   -58.467818    300.91449 
    7810   0.95868451   -35293.936   -19.296395    300.59663 
    7820   0.95855176   -35295.721   -44.201031    300.27641 
    7830   0.95842172   -35298.559   -33.163628    299.08471 
    7840   0.95829376   -35303.035   0.86782483    297.98979 
    7850   0.95816516    -35308.41    43.024888    295.56318 
    7860   0.95803365   -35315.584   -17.948152     297.9269 
    7870   0.95790228   -35324.442    26.611995    294.40366 
    7880   0.95776917    -35334.73    26.467016    293.27099 
    7890   0.95763446   -35346.156     -86.9896    297.20492 
    7900   0.95750466   -35358.932   -87.760975     295.7162 
    7910   0.95738173   -35372.624   -173.94768    296.36037 
    7920   0.95727153   -35387.301   -321.38368    298.67811 
    7930   0.95718401   -35402.515   -337.22222    295.49414 
    7940   0.95712104   -35416.815   -285.79379    292.52545 
    7950   0.95708001    -35429.61   -366.77594    296.84341 
    7960   0.95706517   -35441.431   -369.02706    297.36147 
    7970   0.95707701   -35453.067    -270.3651    296.62397 
    7980   0.95710895   -35463.799   -186.04099    295.32879 
    7990   0.95715526   -35472.935   -194.96607    295.10484 
    8000   0.95721662   -35481.155    -264.4753    297.09317 
    8010     0.957297   -35488.478   -233.87232    296.36996 
    8020   0.95739495   -35495.185   -176.91107      295.856 
    8030   0.95750648   -35500.916   -121.13407    294.90782 
    8040   0.95762772   -35505.494   -89.228683    293.57934 
    8050   0.95775634   -35508.257   -112.86392    294.40202 
    8060   0.95789411    -35510.01   -192.97284    297.44296 
    8070   0.95804593   -35510.748   -180.22984    294.63179 
    8080   0.95821219    -35510.78   -188.58305    295.20316 
    8090    0.9583924   -35509.559   -119.69063    295.29824 
    8100   0.95858211   -35506.692   -20.801827    293.71824 
    8110   0.95877453   -35502.462    21.269291    293.77297 
    8120   0.95896556   -35496.396     115.2712    293.85321 
    8130   0.95914912   -35488.045    167.09581     293.9309 
    8140   0.95932162   -35477.879    135.06551    295.58623 
    8150   0.95948479   -35465.956    91.454372      298.781 
    8160     0.959641   -35453.875    150.13928    297.01783 
    8170   0.95978718   -35441.199    186.04285    294.99166 
    8180   0.95992136   -35427.713    85.714601    299.24913 
    8190   0.96004898    -35414.05    72.600563     298.9371 
    8200   0.96017214   -35401.602    55.453022    299.08905 
    8210   0.96029137   -35389.941    64.717116    298.76555 
    8220   0.96040591   -35378.804    132.56039    295.50589 
    8230   0.96051144   -35367.643    167.09562    294.46077 
    8240   0.96060547   -35355.793    145.55839    296.70741 
    8250   0.96068913    -35344.38    102.28332    299.59648 
    8260   0.96076521   -35334.335    101.78095    300.22544 
    8270   0.96083354   -35326.096    180.10448    297.59919 
    8280   0.96089002   -35319.032    134.90915    300.54708 
    8290   0.96093638   -35313.316    136.73415    298.84727 
    8300   0.96097343   -35308.509    108.22621    298.74099 
    8310   0.96100282   -35305.018    31.402069    303.25338 
    8320   0.96102916    -35302.83    47.024347    299.98294 
    8330   0.96105314   -35302.377   -30.310293    301.61926 
    8340   0.96107842   -35302.728    31.484017    297.81414 
    8350    0.9611024   -35303.487    17.454884    298.07489 
    8360   0.96112549   -35304.119   -83.620267    300.25672 
    8370   0.96115477   -35305.421   -173.25062    298.95337 
    8380   0.96119744   -35307.531   -293.25517    302.80181 
    8390   0.96126042   -35310.423   -196.90268    299.08135 
    8400   0.96133931   -35314.251   -182.72686    300.37887 
    8410   0.96143212   -35318.952   -205.53023    304.88651 
    8420   0.96153915   -35326.251   -48.504548    304.25536 
    8430   0.96164946   -35334.952    241.89136    297.74259 
    8440   0.96174392   -35343.196    361.40589    295.71256 
    8450   0.96181321   -35350.401     306.2827    297.96284 
    8460   0.96185999   -35356.645    283.37425    297.06559 
    8470   0.96188588   -35362.277    311.66127     295.6488 
    8480    0.9618891   -35366.767    319.25371    294.92908 
    8490   0.96186916   -35369.433    259.62407    294.39808 
    8500   0.96183061   -35370.829    107.66199    296.74282 
    8510   0.96178412   -35371.989   -61.696311    300.65301 
    8520   0.96174098   -35373.669   -92.795135    300.14747 
    8530   0.96170426   -35375.909   -68.014999    298.96635 
    8540   0.96167237   -35378.289   -43.621122    298.83374 
    8550   0.96164321   -35381.105    19.487996    298.73843 
    8560   0.96161199   -35383.592    141.56182    295.73261 
    8570   0.96157062   -35385.343    218.18658    294.65926 
    8580   0.96151353   -35385.728    175.94924    296.86497 
    8590   0.96144354   -35385.779    58.716027    300.51856 
    8600   0.96136835   -35385.827   -3.7081991    298.04569 
    8610   0.96129386   -35386.764   -142.78053    300.59911 
    8620   0.96122867   -35388.247   -146.23802    300.26654 
    8630   0.96117295    -35389.76    43.125337    291.62568 
    8640   0.96111559   -35389.668    18.422967    294.24118 
    8650   0.96105655   -35388.207   -80.287785    296.96459 
    8660    0.9610027   -35386.076   -126.78126    294.26362 
    8670   0.96095818   -35383.415   -196.17674    295.08444 
    8680   0.96092764   -35379.502    -222.4278    293.25679 
    8690   0.96091387   -35374.629   -298.30311    294.43111 
    8700   0.96092213   -35369.622   -381.57297    298.09521 
    8710   0.96095754   -35364.837   -312.06424    296.14005 
    8720    0.9610162   -35360.003   -196.85247    295.95614 
    8730    0.9610899   -35355.341   -97.674688    296.05183 
    8740   0.96117215   -35350.133   -102.36768    294.62491 
    8750   0.96126392   -35345.049   -256.41493     298.0348 
    8760    0.9613739   -35339.575   -236.16186    297.78208 
    8770    0.9615017   -35334.865   -115.45337    297.30125 
    8780   0.96163896   -35330.413    8.9363668    296.21018 
    8790   0.96177742   -35325.694    37.104514    297.08197 
    8800   0.96191511   -35321.242   -82.478217    301.88355 
    8810   0.96205962   -35317.676   -150.22443    301.90642 
    8820   0.96221618   -35316.279    -142.7936    303.71637 
    8830   0.96238348   -35317.056    15.782256    301.58582 
    8840   0.96255127    -35319.34    176.85296    298.56367 
    8850   0.96270807   -35322.051    212.24427    298.76929 
    8860   0.96285094   -35324.592    139.95849    301.26246 
    8870   0.96298403   -35328.965     107.4334    304.69229 
    8880   0.96310884   -35335.571    265.22525    301.62296 
    8890   0.96321587   -35343.849     368.7749    298.16604 
    8900   0.96329667   -35351.994    426.89785    295.71573 
    8910   0.96334779   -35359.522    322.84196    298.06022 
    8920   0.96337541    -35367.36    187.00046    299.51948 
    8930   0.96338948   -35375.431      76.0362    299.35983 
    8940   0.96339766   -35384.682    44.052788    299.40956 
    8950   0.96340236   -35394.943    76.315889    298.72868 
    8960   0.96340133   -35404.809    125.82872    295.61404 
    8970   0.96339161     -35414.4    84.681048    298.43709 
    8980   0.96337493   -35424.185    108.39226    297.47545 
    8990   0.96335019   -35433.556    152.21013    294.04502 
    9000    0.9633146   -35441.719     133.5617     294.7151 
    9010   0.96326902   -35448.409     94.62698    293.71164 
    9020   0.96321664   -35453.896   -14.811101    296.59723 
    9030   0.96316389   -35458.814   -21.527255    298.65523 
    9040   0.96311107   -35463.415    138.34341    293.66749 
    9050   0.96304919   -35467.671    107.00224    296.18929 
    9060    0.9629791   -35470.818   -18.932514    299.91752 
    9070   0.96290953   -35475.252   -106.50966     300.6416 
    9080   0.96284636   -35480.849     -28.2057    293.56852 
    9090   0.96278528   -35486.238    24.952976    294.52944 
    9100   0.96272157   -35491.105    82.216572    293.99947 
    9110   0.96265172   -35495.669    47.946201    294.52709 
    9120   0.96257775   -35500.153   -27.027256    296.73732 
    9130   0.96250435   -35505.094    22.675707    293.34999 
    9140   0.96242891    -35510.23    51.256736    293.52418 
    9150   0.96234947   -35514.329   -18.606951     295.9426 
    9160   0.96227053   -35518.785   -95.286277    296.38148 
    9170    0.9621981   -35523.356   -193.74797     298.6177 
    9180   0.96213881   -35529.021   -239.48542    299.62864 
    9190   0.96209635    -35535.72   -220.81884    297.81768 
    9200    0.9620698   -35543.333   -174.83208    296.56921 
    9210   0.96205515   -35550.516   -33.301742    294.34588 
    9220    0.9620433   -35557.498    51.742023    296.30787 
    9230   0.96202701   -35563.461    143.76285    295.59851 
    9240   0.96200094   -35569.852    106.01159    297.13664 
    9250   0.96196626   -35575.088     120.6389    294.49705 
    9260   0.96192228   -35579.096    175.81862    293.68606 
    9270   0.96186473   -35582.047    233.87337    294.64316 
    9280   0.96178937   -35583.066    262.92111    291.80226 
    9290   0.96169479   -35582.156     145.4776    294.92788 
    9300   0.96158715   -35580.042    145.30913    293.71561 
    9310   0.96146733   -35575.557    201.03376    289.80513 
    9320   0.96133274   -35568.531    82.226705    295.09781 
    9330   0.96118945   -35558.881    76.415203    291.95229 
    9340   0.96104012   -35547.778   -49.909106    295.89837 
    9350   0.96089223   -35534.358   -131.40173    294.34062 
    9360   0.96075337   -35519.913   -271.11498    293.43637 
    9370   0.96063234   -35504.053   -316.16084    294.03408 
    9380   0.96053265   -35487.455   -226.97191     292.2635 
    9390   0.96044909   -35469.539   -179.03877    292.17525 
    9400   0.96037818   -35451.032   -184.15602    291.74848 
    9410   0.96032065    -35432.71   -267.25732    294.34684 
    9420   0.96028158   -35414.807     -259.224    291.61185 
    9430   0.96026227   -35397.784   -350.96182     296.1067 
    9440   0.96026824   -35382.398    -395.7599    300.79894 
    9450   0.96030281   -35370.153   -296.00012    299.41384 
    9460    0.9603603   -35360.504   -235.39651    299.34982 
    9470    0.9604358   -35352.081   -148.16862    296.99856 
    9480   0.96052343   -35344.322   -70.516249    297.46499 
    9490   0.96061753   -35336.895   -22.121689    300.56163 
    9500   0.96071304   -35330.735    160.91757    297.92705 
    9510   0.96079909   -35325.377    223.41363    297.97045 
    9520   0.96087021   -35319.808    197.35739    298.18949 
    9530    0.9609284   -35314.794    90.530292    300.37194 
    9540    0.9609796   -35310.339     126.3416    298.83767 
    9550   0.96102228   -35306.713    186.67344    298.52979 
    9560   0.96105156    -35303.07    247.84934    298.25243 
    9570   0.96106303   -35299.531    302.96125    297.13206 
    9580   0.96105274   -35295.649    295.79199    296.41421 
    9590   0.96102082   -35291.104    238.03813    296.69755 
    9600   0.96097061   -35286.104    205.16174    297.79796 
    9610   0.96090484   -35281.015    131.55333    300.32581 
    9620   0.96082823   -35276.278    60.471116    301.28234 
    9630   0.96074582   -35272.413    38.411085    300.72193 
    9640   0.96065932   -35269.992    35.557291    300.59803 
    9650    0.9605693   -35268.331    17.565645    301.77962 
    9660   0.96047617   -35268.198    84.719582    300.28367 
    9670   0.96037518   -35268.331    213.88514    296.81595 
    9680   0.96025736   -35268.783      278.189    296.88329 
    9690   0.96011774   -35268.911    254.18333    297.38204 
    9700   0.95995761   -35268.625    186.06254    298.53493 
    9710   0.95978147   -35268.489    128.23415    298.83869 
    9720   0.95959363   -35268.391    54.274735    299.17801 
    9730   0.95939986   -35269.211   -113.14388    304.39075 
    9740   0.95921084   -35272.448   -143.60564    303.39752 
    9750   0.95902939    -35278.02   -14.037767    296.69304 
    9760   0.95884748   -35284.523    40.947433    295.40933 
    9770   0.95866033   -35290.737    25.010494     297.3624 
    9780   0.95846883   -35297.224   -22.892566    298.77979 
    9790   0.95827696   -35304.738   -122.64364    300.71664 
    9800   0.95809129   -35314.361   -164.20227     299.3735 
    9810   0.95791547    -35325.57   -201.46448    298.05801 
    9820   0.95775306   -35337.957   -313.83005    299.74466 
    9830   0.95761132   -35351.835    -350.2504    297.49882 
    9840   0.95749426   -35366.546   -403.12013    297.93257 
    9850   0.95740516    -35381.69   -405.04701    298.03693 
    9860   0.95734452   -35396.655   -344.25485    296.47518 
    9870   0.95730899   -35410.774   -328.38743    296.25262 
    9880   0.95729774   -35423.773   -346.43205    294.43044 
    9890   0.95731198   -35434.662   -333.24178    292.22507 
    9900   0.95735181   -35443.421   -393.89674    294.97038 
    9910   0.95742051   -35449.865   -365.23912     293.2973 
    9920   0.95751729   -35454.298   -333.58361    292.50112 
    9930   0.95764068   -35456.823   -389.68058    294.05256 
    9940   0.95779436   -35457.382   -426.39966     295.9948 
    9950    0.9579817   -35457.144   -435.59112    297.65298 
    9960   0.95820336   -35456.569   -355.61005    295.18651 
    9970   0.95845475   -35455.639   -291.36366    297.61795 
    9980   0.95873033    -35454.03   -146.61858    297.37062 
    9990   0.95902061   -35451.981   -39.076051    295.78659 
   10000   0.95931868   -35449.648   -93.877252    297.06722 
   10010   0.95962704   -35446.222    -103.2277    296.45715 
   10020   0.95994619   -35442.376   -26.028829    296.21711 
   10030   0.96027123   -35437.241    53.442883    296.22985 
   10040   0.96059617   -35431.388    115.64086    297.22257 
[...]
  341570   0.96100397   -35253.758    129.28452    301.19026 
  341580   0.96089308   -35251.484     143.4606     301.5297 
  341590    0.9607693   -35250.403    266.37228    298.34858 
  341600   0.96062503   -35249.831    283.64444    298.74085 
  341610   0.96045831   -35249.472    213.10379    299.28134 
  341620   0.96027366   -35249.068    145.32511    299.50424 
  341630   0.96007592   -35249.585     59.82409     300.3331 
  341640    0.9598709   -35250.933    34.363899    298.88906 
  341650   0.95966034   -35253.256    58.715129    298.56592 
  341660   0.95944315   -35255.654    33.054886    298.01582 
  341670   0.95922135    -35258.11   -49.586074    299.22703 
  341680   0.95900013   -35261.063   -73.776433    298.08711 
  341690   0.95878211   -35264.861   -142.93537    300.38118 
  341700   0.95857186   -35269.794   -207.15615    300.41069 
  341710   0.95837486   -35276.768   -307.92257    301.61644 
  341720   0.95819761   -35285.938   -306.48823    301.22067 
  341730   0.95804034   -35297.498   -210.81529    300.35633 
  341740   0.95789697   -35311.236   -144.55751    298.24856 
  341750   0.95776325   -35326.304   -161.80519     297.8384 
  341760   0.95763945    -35342.25   -106.45778     296.2853 
  341770   0.95752172   -35357.527    24.000131    292.07947 
  341780   0.95740116   -35370.844    105.42861    290.91364 
  341790   0.95727155   -35380.636    128.55117    290.17776 
  341800   0.95713188   -35388.464   -16.193921     296.2107 
  341810   0.95699055   -35395.142   -51.538318    297.42504 
  341820   0.95685117   -35401.707    -47.83922    297.47598 
  341830   0.95671388   -35408.009   -88.390506     297.1004 
  341840    0.9565824   -35413.418   -210.28157    294.62425 
  341850   0.95646516   -35417.995   -359.46941    297.30718 
  341860   0.95637233   -35422.176   -402.71318    298.33458 
  341870   0.95630766   -35426.531   -358.27965    294.82996 
  341880   0.95626942   -35429.732   -368.58029    294.86808 
  341890   0.95625806   -35431.942   -396.73583    296.23021 
  341900   0.95627565   -35433.553   -377.47081    295.56034 
  341910   0.95632097   -35434.151   -267.75425    294.12306 
  341920   0.95638646   -35433.347   -119.04894    293.07172 
  341930   0.95646146   -35430.245    37.820811    291.02292 
  341940    0.9565353   -35423.627      97.5629    288.75508 
  341950   0.95660458    -35412.25   -70.030355    293.32113 
  341960   0.95667932   -35395.878   -176.51425    293.98979 
  341970   0.95676817   -35375.034   -263.84903    297.42882 
  341980   0.95687697   -35351.056    -255.0061    300.31354 
  341990   0.95700528   -35326.725   -94.920138    298.10139 
  342000   0.95714302   -35303.073    19.006641    298.64671 
  342010   0.95728091   -35281.752    139.82101    299.63773 
  342020   0.95741029   -35263.601    271.19149    297.30874 
  342030   0.95752194   -35248.793    327.34707    297.43878 
  342040   0.95761103   -35236.557    347.67166     297.5531 
  342050   0.95767594   -35226.688    292.59828    299.82055 
  342060   0.95772038   -35219.645    169.13867    301.48853 
  342070   0.95775262   -35214.721    91.380883    300.73889 
  342080    0.9577781   -35211.281    112.40812    299.25971 
  342090   0.95779623   -35209.266    84.471821    299.75081 
  342100   0.95780858   -35207.991    1.0614212    301.14341 
  342110   0.95782093   -35207.955   -61.268731    301.74427 
  342120   0.95783809   -35209.619   -119.84502     305.3812 
  342130   0.95786341   -35214.208   -63.051298    305.97893 
  342140   0.95789266   -35221.281    159.96878    301.06232 
  342150   0.95791147   -35229.573    263.65949    298.71517 
  342160   0.95791162   -35238.083    254.67597    297.07683 
  342170   0.95789372   -35246.237    157.10333    297.95716 
  342180   0.95786366   -35254.383    81.358888    301.52331 
  342190   0.95782634   -35263.667    108.35175    301.98065 
  342200   0.95778011   -35273.882    214.69794    296.18954 
  342210   0.95771859   -35283.462    186.21249    294.04208 
  342220   0.95764297   -35291.566    60.805987    294.56487 
  342230   0.95756216   -35298.026   -113.98084     296.6036 
  342240   0.95748842   -35303.715    -241.6233      297.837 
  342250   0.95743122   -35309.297   -295.50367    298.11422 
  342260   0.95739494   -35314.722   -291.39219    296.26396 
  342270    0.9573801   -35319.815   -308.11388    296.86073 
  342280   0.95738736   -35323.873   -241.19848    293.48452 
  342290   0.95741356   -35326.555    -243.7671    292.42418 
  342300   0.95745878   -35327.219   -337.48756    296.06172 
  342310    0.9575293   -35326.936    -387.0672    298.13661 
  342320   0.95762835   -35326.562    -268.7322    295.73425 
  342330   0.95774934    -35325.37   -196.67586    294.08667 
  342340   0.95788719   -35322.956   -212.01399    297.06444 
  342350   0.95804243   -35319.473   -200.92901    299.16653 
  342360   0.95821467    -35316.69    -170.5345    302.15692 
  342370   0.95840053    -35314.16    56.617129    297.47685 
  342380   0.95858552   -35311.621    204.49191    295.74625 
  342390   0.95875836   -35307.788    251.44721    296.82935 
  342400   0.95891466   -35302.164    332.60611    294.18777 
  342410   0.95904972   -35294.733    229.18513    297.87295 
  342420   0.95916928   -35285.501    127.40805    300.92655 
  342430    0.9592804   -35275.557    108.88507    301.31772 
  342440   0.95938501   -35265.699     79.45879    301.66491 
  342450   0.95948508   -35255.496    66.866075    301.82723 
  342460   0.95958121   -35245.637    96.804011    303.77292 
  342470   0.95967096   -35236.834    205.03572    301.69743 
  342480   0.95974678   -35228.401    327.37734    297.08172 
  342490   0.95980081   -35219.524     281.3281    297.72086 
  342500   0.95983448   -35209.333    243.79959    299.30831 
  342510   0.95985033    -35199.32    232.14812    301.99507 
  342520   0.95984806   -35189.394    359.65165    298.20606 
  342530   0.95981976   -35179.616    446.88265     296.6189 
  342540   0.95975886   -35168.734    391.54759    297.86818 
  342550   0.95966904   -35157.361    204.12571    302.93513 
  342560   0.95956161   -35146.793    167.09145    302.08753 
  342570   0.95944069   -35138.066    142.19401    302.82586 
  342580     0.959307    -35130.83    184.43735    303.47769 
  342590   0.95915791   -35125.489    255.94298    300.51903 
  342600   0.95898915   -35121.328    179.30063    302.44098 
  342610   0.95880506   -35118.874    81.585354    306.14492 
  342620   0.95861149   -35119.049    175.04525    300.49243 
  342630    0.9584042   -35121.129    122.19022      302.035 
  342640   0.95818515   -35124.668    54.725668    303.07375 
  342650    0.9579594   -35130.775    6.9920079    301.94534 
  342660   0.95773038   -35138.992   -13.427251    300.89944 
  342670   0.95749968    -35149.41   -17.344272    301.10676 
  342680   0.95726766   -35161.585   -9.1128769    299.62506 
  342690   0.95703381   -35175.555    5.0812752    298.20004 
  342700    0.9567973   -35190.877    -14.47056      298.431 
  342710   0.95655919    -35206.47   -15.460746    294.75162 
  342720   0.95632118   -35221.892   -184.17587    297.00438 
  342730   0.95609389   -35236.561   -298.32646    297.95152 
  342740    0.9558864   -35250.887   -361.10149    298.42744 
  342750   0.95570354   -35264.641   -404.39151    297.33007 
  342760   0.95554928   -35276.793   -463.52974    294.62498 
  342770   0.95542833   -35287.268   -560.82063    295.89413 
  342780   0.95534728   -35295.854   -595.07436     296.2482 
  342790   0.95530934   -35302.802   -586.66511    296.81746 
  342800   0.95531407   -35308.732    -520.3951    296.20376 
  342810   0.95535748   -35313.118   -440.98477    294.67551 
  342820   0.95543446   -35316.039   -408.29277    295.32378 
  342830   0.95554268   -35317.726   -405.23963    296.28511 
  342840   0.95568192   -35318.328   -373.60763    296.05219 
  342850   0.95584995   -35318.628   -295.97487     297.7559 
  342860   0.95604065   -35318.418   -125.00953    298.07559 
  342870   0.95624236   -35317.904    52.701803    295.84886 
  342880   0.95644327   -35317.104    74.830167    297.44557 
  342890   0.95664057   -35316.005    60.708055      298.763 
  342900   0.95683533    -35315.28    44.750029    298.59435 
  342910   0.95702893   -35315.161   -13.165639    298.64216 
  342920   0.95722508   -35314.832   -41.025057     298.3487 
  342930   0.95742575   -35314.757   -29.030536    299.19771 
  342940   0.95763001    -35315.53    37.667903    299.52414 
  342950   0.95783315   -35316.253    143.65035    298.98364 
  342960   0.95802728   -35317.212    290.38194    295.91318 
  342970   0.95820208     -35317.5    368.67693    294.50524 
  342980   0.95835255    -35316.95    240.17076    297.14024 
  342990   0.95848637   -35315.821    104.86637    299.32307 
  343000     0.958613   -35315.103    43.293433     300.5592 
  343010   0.95873695   -35315.145     63.12689    296.95595 
  343020   0.95885879   -35315.329   -86.290172    300.30053 
  343030   0.95898761   -35316.313   -222.45011    301.28419 
  343040     0.959134   -35318.714    -320.3547    300.73188 
  343050     0.959305   -35322.321   -361.16608    303.16017 
  343060   0.95950304   -35327.484   -247.88689     301.1759 
  343070   0.95972035   -35333.838   -37.009196    299.19651 
  343080   0.95994232   -35340.819    140.95151    297.65159 
  343090   0.96015616    -35347.37     220.3649    296.66552 
  343100   0.96035578   -35353.416    229.74581    296.42708 
  343110   0.96054002   -35358.756    220.10692    296.92803 
  343120   0.96070924   -35363.956    227.33647     297.4756 
  343130   0.96086268   -35369.139    282.25469    296.15285 
  343140    0.9609964   -35373.716    316.34376    297.36631 
  343150   0.96110771   -35378.206    334.01528    297.28271 
  343160   0.96119508   -35382.216    388.74769    293.55307 
  343170   0.96125543   -35385.761    322.33781    296.74522 
  343180   0.96129134   -35388.307    369.01458    294.79434 
  343190   0.96130054   -35390.496    396.74502    295.76911 
  343200   0.96128008   -35392.042    426.32591     296.7355 
  343210   0.96122853   -35393.486    387.41092    297.27325 
  343220   0.96114796    -35395.18    346.87708    298.85155 
  343230   0.96104057   -35397.409    394.62139     296.1133 
  343240   0.96090414   -35400.212    348.65851     298.0308 
  343250    0.9607408   -35403.117    326.66542    297.69866 
  343260   0.96055241    -35406.83    300.28154    297.76818 
  343270   0.96034024   -35411.357    309.38857      297.388 
  343280   0.96010325   -35416.181    412.34018    292.18392 
  343290   0.95983547    -35419.18    366.82459     291.8846 
  343300   0.95954025   -35420.308    146.68765    295.08176 
  343310    0.9592314   -35418.841    57.968993    291.82278 
  343320   0.95891771   -35416.157   -126.26479    298.09793 
  343330   0.95861007   -35412.096   -125.00002    296.50797 
  343340   0.95831043   -35407.826   -96.993889    295.25583 
  343350   0.95801704   -35402.267   -124.53343    295.02977 
  343360   0.95773141   -35395.254   -106.82775    294.52488 
  343370   0.95745263   -35386.413   -89.300982    295.11902 
  343380    0.9571796   -35376.569   -98.942503    296.88352 
  343390   0.95691294    -35366.05   -113.44448    297.63207 
  343400   0.95665378   -35354.841   -126.08585    297.63832 
  343410   0.95640311   -35343.769   -147.03316    299.60725 
  343420   0.95616199   -35333.013   -99.872414    297.71268 
  343430   0.95592839   -35322.635   -136.38378    297.74905 
  343440   0.95570379   -35312.448   -145.79086    298.09838 
  343450   0.95548904   -35302.272   -92.886932    296.17358 
  343460   0.95528119   -35291.921   -117.79087    298.18517 
  343470   0.95508159   -35281.393   -164.41451    298.38101 
  343480    0.9548935   -35271.168   -171.05401    296.33134 
  343490   0.95471768   -35260.719   -174.47303    295.80839 
  343500    0.9545544   -35249.963   -186.86546    298.70854 
  343510   0.95440401   -35239.111   -133.99506    298.00516 
  343520   0.95426342   -35228.976   -81.307411    296.94303 
  343530    0.9541288   -35218.718   -64.944881    297.21065 
  343540   0.95399854   -35208.397   -53.332116    297.96526 
  343550   0.95387209   -35198.666   -80.251724    300.29483 
  343560   0.95375106   -35189.699   -58.741797    297.23135 
  343570   0.95363482   -35181.198   -93.903532     297.7214 
  343580   0.95352563   -35173.086   -191.50034    302.56831 
  343590   0.95343004   -35166.581   -267.49616     305.7205 
  343600   0.95335308   -35162.858   -224.99579    303.21982 
  343610   0.95329257   -35161.519   -142.54759     299.9548 
  343620   0.95324248   -35161.044   -48.343029    296.80377 
  343630   0.95319669   -35160.539   -66.275968    298.81159 
  343640   0.95315532   -35159.737   -82.957749    298.04603 
  343650   0.95312091     -35159.8   -204.70909    300.30492 
  343660   0.95310065    -35160.07   -211.75044    298.09556 
  343670   0.95309627   -35160.572   -182.32597    297.76778 
  343680   0.95310471   -35161.004   -81.820935     298.4334 
  343690   0.95311918   -35161.994   -3.0624834    298.48076 
  343700   0.95313443   -35162.655  -0.17242404    296.63422 
  343710   0.95315048    -35163.22   -100.83936    299.11745 
  343720   0.95317383   -35164.474   -190.71594    301.61753 
  343730   0.95321107   -35167.391   -213.60228    302.27635 
  343740   0.95326421   -35172.692   -225.87037    303.56166 
  343750   0.95333425   -35181.077   -224.61364     303.2133 
  343760   0.95342077    -35192.62   -146.40097    299.12584 
  343770   0.95351909   -35207.037   -128.85923    298.78379 
  343780   0.95362711   -35223.538   -84.121897    296.67283 
  343790   0.95374262   -35241.015    -120.4021    297.23786 
  343800   0.95386759   -35259.244   -187.37896    299.24082 
  343810   0.95400639   -35278.284   -153.20758    296.14308 
  343820   0.95415776    -35296.27   -164.70981    294.86114 
  343830   0.95432213   -35312.135   -208.23591    295.40563 
  343840   0.95450267   -35325.739   -250.47377    295.41322 
  343850   0.95470235   -35337.119   -250.39257    294.66191 
  343860   0.95492121   -35346.001    -212.1422    295.59881 
  343870    0.9551563   -35353.102   -156.91332     296.2579 
  343880   0.95540409   -35358.443   -127.92522    292.91512 
  343890   0.95566283   -35362.029   -150.79769     296.0486 
  343900   0.95593204    -35364.07    29.093595    293.80484 
  343910   0.95620061   -35364.298     188.5218    290.39175 
  343920    0.9564575   -35361.575    165.12517    291.49944 
  343930   0.95670282   -35356.658    154.62593     292.7192 
  343940   0.95693747   -35350.292    136.09589    294.65401 
  343950   0.95716284   -35342.376    106.10246    295.24073 
  343960   0.95738107   -35334.551     101.5438    296.02493 
  343970   0.95759198   -35326.048    159.94675    295.44768 
  343980   0.95779234   -35317.661    129.34871    299.05089 
  343990    0.9579832   -35310.103    156.79886    299.15343 
  344000   0.95816296   -35303.603    222.29286    297.58767 
  344010   0.95832761   -35297.861    145.36743    302.89055 
  344020    0.9584816   -35293.877    93.045478    302.87779 
  344030   0.95862896   -35291.724     96.07583    301.15741 
  344040   0.95877011   -35291.697    61.837067    300.81839 
  344050    0.9589067   -35292.321    76.191891    298.64426 
  344060   0.95903829   -35293.487    61.393026    299.32549 
  344070   0.95916485   -35294.833    131.90393    299.63272 
  344080    0.9592817   -35296.856    250.14437    298.73974 
  344090   0.95938063   -35298.997    351.73437    295.82075 
  344100   0.95945435   -35300.237    401.84589    292.51259 
  344110   0.95950001   -35299.695    255.30114    295.93831 
  344120   0.95952687   -35298.032    84.971897    298.53023 
  344130   0.95954727   -35296.852   -13.732807    300.32158 
  344140   0.95956776   -35296.248    44.854453    298.74853 
  344150   0.95958582   -35295.842    33.604999    298.37339 
  344160   0.95960188   -35295.826   -13.364715     297.3438 
  344170   0.95961874   -35295.608   -21.586482    297.20472 
  344180   0.95963761   -35295.287   -71.478864     300.6434 
  344190   0.95966067   -35295.454    9.8422583    298.73257 
  344200   0.95968366   -35295.841    55.748929    296.76613 
  344210   0.95970326   -35296.639  -0.36895911    299.51602 
  344220   0.95972244   -35297.458     13.99483    299.10625 
  344230   0.95974017    -35299.03     113.9821     297.7905 
  344240   0.95974958   -35300.714    209.06323    295.77244 
  344250   0.95974445   -35302.315    178.85033    297.11548 
  344260   0.95972635   -35303.739    96.666056    299.15434 
  344270   0.95970135   -35305.966   -12.851388    300.56613 
  344280   0.95967732   -35310.659    -125.8317    302.06448 
  344290   0.95966187    -35318.23   -139.22517    299.47884 
  344300   0.95965696   -35328.265   -148.83741    297.39752 
  344310    0.9596628   -35340.124   -125.18239    296.38517 
  344320   0.95967806   -35353.256   -121.79828    297.54931 
  344330    0.9597021   -35367.271   -107.76656     297.4041 
  344340   0.95973462   -35381.697   -115.29031    294.39425 
  344350   0.95977661   -35395.245   -200.86863    295.63528 
  344360   0.95983342   -35408.274   -273.46065    297.92087 
  344370   0.95991061   -35420.795   -322.97264    297.02134 
  344380   0.96001178   -35432.718   -308.78846     295.8143 
  344390   0.96013616   -35443.768   -252.49214    295.71572 
  344400   0.96027984   -35453.578   -198.85904    295.34401 
  344410   0.96043932   -35462.198   -199.56256    296.89259 
  344420   0.96061426   -35470.156   -188.16617    295.77767 
  344430   0.96080434   -35476.967   -184.03547    293.59973 
  344440   0.96100976   -35482.779   -276.08361    299.11471 
  344450   0.96123525    -35488.29   -220.92973    298.78896 
  344460   0.96147851   -35493.736   -160.51794    296.41876 
  344470   0.96173512   -35499.502   -155.23126    298.52897 
  344480   0.96200303   -35504.407    7.5442845    294.41165 
  344490   0.96227225   -35508.888    127.01017    293.97962 
  344500   0.96253367   -35511.387    201.66765    292.66854 
  344510   0.96278155   -35511.742    218.88023    293.33484 
  344520   0.96301513   -35510.772    117.55256    296.84504 
  344530   0.96324075   -35508.704    36.859089    296.88424 
  344540   0.96346468   -35506.459   -30.994479    299.13168 
  344550   0.96369121   -35504.514   -23.476184    300.25075 
  344560   0.96391931   -35502.531     135.2404    295.17511 
  344570   0.96413935   -35500.108    180.68248    295.58662 
  344580   0.96434724   -35496.269    128.15701    297.65831 
  344590   0.96454641   -35492.133    72.279859    298.65883 
  344600   0.96474018   -35487.715    129.01868    296.58421 
  344610   0.96492552   -35482.571    168.30678    296.79456 
  344620   0.96509903   -35476.017    185.01452    298.47255 
  344630   0.96525932   -35468.936    204.43098    299.63585 
  344640   0.96540503   -35462.004    222.69089    300.67542 
  344650   0.96553449   -35455.187    308.58408    299.68534 
  344660   0.96564102   -35448.448    479.20464    297.75786 
  344670   0.96571277   -35441.058    591.98305     296.4754 
  344680   0.96574212   -35432.281    526.57261    299.32043 
  344690   0.96573228   -35422.906    507.99787    298.31358 
  344700    0.9656847   -35412.727    559.19821    295.53569 
  344710   0.96559629   -35400.799    546.92285     294.9976 
  344720   0.96546776   -35387.269    450.66438    298.56206 
  344730   0.96530463   -35372.716     453.6302    301.36768 
  344740   0.96510741   -35358.495    480.32879    300.52907 
  344750   0.96487499   -35345.285    396.81622    301.91317 
  344760   0.96461224   -35333.466     367.5599    301.10439 
  344770   0.96432135   -35323.195    404.43014    300.69753 
  344780   0.96399989   -35314.292    428.41675    301.78223 
