
variable systemNsize equal 5
variable rndSeed equal 1234
variable Nrun equal 500000
variable Nstab equal 5000
variable NdumpStats equal 10
variable NdumpFrames equal 10000
variable Text equal 298.0
variable Pext equal 1.0

units real
    # g/mol, A, fs, Kcal/mol, K, atm, g/cm^3
atom_style full
read_data SPCE2.data
  orthogonal box = (0 0 0) to (3.1 3.1 3.1)
  1 by 1 by 3 MPI processor grid
  reading atoms ...
  3 atoms
  scanning bonds ...
  2 = max bonds/atom
  scanning angles ...
  1 = max angles/atom
  reading bonds ...
  2 bonds
  reading angles ...
  1 angles
  2 = max # of 1-2 neighbors
  1 = max # of 1-3 neighbors
  1 = max # of 1-4 neighbors
  2 = max # of special neighbors
  special bonds CPU = 0.000270128 secs
  read_data CPU = 0.00303721 secs

replicate ${systemNsize} ${systemNsize} ${systemNsize}
replicate 5 ${systemNsize} ${systemNsize}
replicate 5 5 ${systemNsize}
replicate 5 5 5
  orthogonal box = (0 0 0) to (15.5 15.5 15.5)
  1 by 1 by 3 MPI processor grid
  375 atoms
  250 bonds
  125 angles
  2 = max # of 1-2 neighbors
  1 = max # of 1-3 neighbors
  1 = max # of 1-4 neighbors
  2 = max # of special neighbors
  special bonds CPU = 0.000206947 secs
  replicate CPU = 0.00208402 secs

include SPCE2.pot
# Original model from Berendsen et al, J Phys Chem 91:6269 (1987)
# Charges and geometry are specified in the ".data" file.

mass 1 1.008 # H
mass 2 15.9994 # O

pair_style lj/cut/coul/dsf 0.0512 12.0
#pair_style lj/cut/coul/long 12.0
    # LJ_Rcut (Coul_Rcut)
#pair_style lj/cut/tip4p/long 2 1 1 1 0.15 12.0

pair_modify tail yes
    # assumtions and approximations:
    # 1) 3d bulk homogeneous liquid (+)
    # 2) RDF is unity beyond the cutoff (?)
    # 3) It's computed at the begining of the run, so N of particles shouldn't be changed (+)
    # 4) atoms don't feel additional energy but it's added to the PE etc
#kspace_style pppm/tip4p 1.0e-5
#kspace_style pppm 1.0e-5
    # accuracy - desired relative error in forces

pair_coeff 1 1 0.00000 0.000
pair_coeff 1 2 0.00000 0.000
    # TODO - I would put here the sizes of H and O atoms instead of one big LJ repulsion from the O atom. What "e" to choose is still a question.
pair_coeff 2 2 0.1550 3.1536
    # epsilon, sigma, [LJ_Rcut, [Coul_Rcut]]
    # distance between H and O is 1.0 so 3.166 > 1.0 accounts for the size of a molecule as a whole
    # I guess the major part in forces inside a molecule are indeed due to OH and HOH (angle) bondings, so computing LJ and Coul for them would be practically a waste of time so it may be ommitted. So I see only an optimizational reason to set LJ coefs to 0 for H atoms inside a molecule. However here (as far as I understand) we set all LJ coefs to 0. I understand LJ is a short-rage potential so its contribution can be neglegible compared to Coul, but it's not obvious for me why it actually is.
    # TODO - there might be a more correct way to ommit unnecessary interaction by using special_bond

bond_style harmonic
    # E = k(r-r0)^2
bond_coeff 1 0.0 1.0
    # bondID k r0
    # ? - how does k=0 make sense?
    # Is this to formaly bond atoms but actual bonding is done by rattle?

angle_style harmonic
angle_coeff 1 0.0 104.52
    # ? - same, how does k=0 make sense?


velocity all create ${Text} ${rndSeed}
velocity all create 298 ${rndSeed}
velocity all create 298 1234

fix removeMomentum all momentum 1 linear 1 1 1 angular
    # 1 - adjust the momentum every 1 timesteps
    # linear 1/0 1/0 1/0 - zero the P_x/y/z
    # angular - zero angular momentum (TODO - add "angular" here?)
    # scale - scale velocities after the adjustment so T is conserved (TODO - add "scale" here?)

fix stab_iso all npt temp ${Text} ${Text} $(50.0*dt) iso ${Pext} ${Pext} $(500.0*dt)
fix stab_iso all npt temp 298 ${Text} $(50.0*dt) iso ${Pext} ${Pext} $(500.0*dt)
fix stab_iso all npt temp 298 298 $(50.0*dt) iso ${Pext} ${Pext} $(500.0*dt)
fix stab_iso all npt temp 298 298 50 iso ${Pext} ${Pext} $(500.0*dt)
fix stab_iso all npt temp 298 298 50 iso 1 ${Pext} $(500.0*dt)
fix stab_iso all npt temp 298 298 50 iso 1 1 $(500.0*dt)
fix stab_iso all npt temp 298 298 50 iso 1 1 500
    # Tstart,Tstop = external temperature at start/end of run
    # Tdamp = temperature damping parameter (time units)
    # temp - for thermostat, iso - for barostat

fix stab_constrain all rattle 1.0e-5 100 0 b 1 a 1
  0 = # of size 2 clusters
  0 = # of size 3 clusters
  0 = # of size 4 clusters
  125 = # of frozen angles
  find clusters CPU = 0.000169039 secs
    # fix ID group-ID shake tol iter N constraint1 value1 ...
    # iter - max # of iterations in each SHAKE solution
    # print SHAKE statistics every N many timesteps (0 = never)
    # b - bonds, a - angles
    # b 1 - bonds of type 1
    # a 1 - bonds of type 1
    # shake adds forces to make the displacement satisfy constraints - e.g. |r_ij|=d
    # rattle does the same and additionally it refines velocities - e.g. (|r|)'_t = 0.
    # *should be defined after other force- and v- modifiers since it doesn't account for them

thermo_style custom step density press temp
thermo ${NdumpStats}
thermo 10
run ${Nstab}
run 5000
Neighbor list info ...
  update every 1 steps, delay 10 steps, check yes
  max neighbors/atom: 2000, page size: 100000
  master list distance cutoff = 14
  ghost atom cutoff = 14
  binsize = 7, bins = 3 3 3
  1 neighbor lists, perpetual/occasional/extra = 1 0 0
  (1) pair lj/cut/coul/dsf, perpetual
      attributes: half, newton on
      pair build: half/bin/newton
      stencil: half/bin/3d/newton
      bin: standard
Per MPI rank memory allocation (min/avg/max) = 8.078 | 8.098 | 8.118 Mbytes
Step Density Press Temp 
       0    1.0041715    28770.659    294.41219 
      10    1.0004794    19466.874    389.84401 
      20   0.99127566    3124.7767    848.05465 
      30   0.98092866   -4981.3041    1021.7452 
      40   0.97215708   -4413.0268    847.17288 
      50    0.9650413   -2954.7113    669.22555 
      60   0.95917726   -3670.0063    639.47547 
      70   0.95462616   -4129.0474     631.8188 
      80    0.9514702   -4326.4253    604.29172 
      90   0.94971197   -4570.2082    572.33919 
     100   0.94932963   -4195.0795    523.69187 
     110    0.9501839   -4226.9221    521.73785 
     120   0.95219728    -3617.265    493.43276 
     130    0.9551358   -2432.5385    467.38879 
     140   0.95865735   -2013.7858     472.5265 
     150    0.9625923    -1533.293    430.96147 
     160   0.96680438   -1405.7612    420.47653 
     170   0.97122597   -1407.6252    429.48241 
     180   0.97584378   -1360.1009    423.29361 
     190   0.98060961   -709.68551    401.74655 
     200   0.98534037    379.57098    374.16535 
     210   0.98973721    1094.2811    375.00614 
     220   0.99359355     1687.921    360.92371 
     230   0.99678211    1958.5702    328.88057 
     240   0.99928386    833.52249    334.80259 
     250    1.0014382    -1004.762    352.31808 
     260    1.0037398   -1207.4665    319.11525 
     270    1.0062973   -1483.9608    309.63398 
     280    1.0091857   -2080.3619      315.006 
     290    1.0125307   -1842.9733    293.73501 
     300    1.0162796   -1517.5114    298.31906 
     310    1.0203037   -771.45551    298.21136 
     320    1.0244036   -221.83791    299.79584 
     330    1.0284047     526.8371    278.48526 
     340    1.0321304    537.19542    275.32391 
     350    1.0355774    -184.0996    303.43308 
     360    1.0389341   -355.73406    320.26992 
     370    1.0422641   -204.53333    305.02859 
     380    1.0455582   -572.66806    318.86592 
     390    1.0488761    275.40239    288.03523 
     400    1.0520151     906.0255    277.61389 
     410    1.0548085    943.99081    290.85325 
     420    1.0572145    1537.9611    290.84871 
     430    1.0591105     1918.518    288.61974 
     440     1.060385    2116.0438    285.76835 
     450    1.0610093    2482.5045    283.16274 
     460    1.0609012     2296.349    287.53322 
     470    1.0601356    1524.1385    304.96866 
     480    1.0589411    1026.0577    291.54762 
     490     1.057475    598.53697    279.89389 
     500    1.0558592    560.48445    284.25348 
     510    1.0540932    933.66668    272.31507 
     520    1.0521166    678.86855    273.01691 
     530    1.0499799    471.65867    273.25777 
     540    1.0477377    575.15544    283.21472 
     550    1.0453714    732.00964     291.2816 
     560    1.0428324    962.55258     292.6458 
     570    1.0400843    692.53931    292.42556 
     580    1.0371879    312.21873    290.71472 
     590    1.0342833   -586.65796    309.50083 
     600      1.03157   -285.08074     292.6394 
     610    1.0290214   -531.06095    284.17709 
     620    1.0267113    -1822.612    319.69494 
     630    1.0249267   -1403.8061    307.87634 
     640    1.0235939   -905.48362     297.7016 
     650    1.0225623   -981.85133    302.22646 
     660    1.0218211    -739.6704    291.68482 
     670    1.0213387   -1305.7661    336.25739 
     680     1.021185   -259.52283     309.0935 
     690    1.0211272    414.03606    312.96916 
     700    1.0209422    960.83001    295.03623 
     710    1.0205127    245.40902    323.46112 
     720    1.0199857    171.31581    310.51951 
     730     1.019428    235.13262    283.77331 
     740    1.0188273   -267.19676     309.1936 
     750    1.0182946     -522.553    319.83957 
     760     1.017929   -997.03397     321.6102 
     770    1.0178263   -465.18035    317.24091 
     780    1.0178445    725.40281    300.94942 
     790    1.0176663    1084.9394    286.02731 
     800    1.0171975      272.031    286.17984 
     810    1.0166573   -600.08808    300.35702 
     820    1.0162756   -586.44658    302.40216 
     830    1.0160512    -154.9841    298.32682 
     840    1.0158722    349.67397    286.42572 
     850    1.0155903    668.79682      275.187 
     860    1.0151238    414.60061    287.69191 
     870    1.0145369    67.117253    295.37064 
     880    1.0139287    29.473129    281.65251 
     890    1.0133288   -438.49826    298.10033 
     900     1.012827     85.19399    284.61782 
     910    1.0123058     808.0981    285.21583 
     920    1.0115418    1337.6199     277.2301 
     930    1.0104164    1144.5765    284.68459 
     940     1.008942    1251.4933    281.74812 
     950    1.0071159    1048.7699     306.6255 
     960    1.0049611    1535.1103    282.35544 
     970    1.0024075     914.4445     295.5138 
     980   0.99959703    347.07862    288.80314 
     990   0.99673957   -923.85778    305.82935 
    1000   0.99414992   -1308.1321    297.73183 
    1010   0.99196603   -1532.5687    312.80936 
    1020   0.99023516   -1349.2306    307.33139 
    1030   0.98892069   -1120.1953     301.7798 
    1040   0.98793636   -687.85005     295.0685 
    1050   0.98717584   -839.36553    321.52298 
    1060    0.9866361    -345.3296    312.28865 
    1070   0.98622073   -368.79197    312.48778 
    1080   0.98591271   -502.94178    312.20228 
    1090   0.98575375   -466.05855    312.55108 
    1100   0.98570642    43.552022    294.88198 
    1110   0.98569083   -468.41244    301.30403 
    1120   0.98580639   -1082.7893    308.72331 
    1130   0.98621572   -1157.4242    294.28418 
    1140   0.98697567   -1224.2637    309.29028 
    1150   0.98804465    134.78187    279.19374 
    1160   0.98910986    631.14012    277.15696 
    1170   0.98998834    536.33423    279.08807 
    1180   0.99072339   -119.47181    302.93764 
    1190   0.99146509    54.636216    295.08132 
    1200   0.99218918    314.53991    288.77977 
    1210   0.99280726    787.65773    292.45862 
    1220   0.99317388    1788.9426    296.91649 
    1230   0.99302932    2146.5246    296.71642 
    1240   0.99227288    1762.6104    294.69678 
    1250   0.99099926    1322.1807      295.012 
    1260   0.98932505    1030.5149     311.2448 
    1270   0.98735265    533.92561    314.31079 
    1280   0.98523236    -253.9569    323.45753 
    1290   0.98317925   -552.15383    307.28139 
    1300   0.98127883   -447.57057    296.22252 
    1310   0.97952029    -444.4466    289.30625 
    1320   0.97790241   -820.97175    291.15537 
    1330   0.97652674   -1214.1541    295.33309 
    1340   0.97550388   -1566.7267    288.85457 
    1350   0.97493773   -1563.4804    301.78088 
    1360   0.97479659   -519.25468    277.78569 
    1370   0.97483422   -221.43988    288.40013 
    1380   0.97495109     -674.875    312.09069 
    1390   0.97523694   -435.82758    280.74396 
    1400   0.97569535   -1129.5321    304.98668 
    1410   0.97643737   -815.04766    304.71985 
    1420   0.97744672    -730.0144    300.15808 
    1430   0.97867035   -751.73048    302.02715 
    1440   0.98010622   -148.85335    282.90926 
    1450   0.98161481   -162.54704    300.64444 
    1460    0.9831577    11.592832    294.67489 
    1470   0.98472443   -79.262027    285.45029 
    1480   0.98632457   -439.27158    301.05679 
    1490   0.98803454    116.78603    304.76067 
    1500   0.98970715    993.21385      287.371 
    1510   0.99113552    632.10331    311.78052 
    1520   0.99237477      351.366    307.68635 
    1530   0.99350319    409.55076    298.98236 
    1540   0.99453162    233.38816     308.0764 
    1550   0.99548181    278.47824    299.92901 
    1560   0.99637885   -400.41991    305.96623 
    1570   0.99740593   -1251.0141    321.57783 
    1580   0.99877975    -1034.762    314.25164 
    1590    1.0004675   -617.92494    313.70226 
    1600    1.0023446   -39.096115    301.81868 
    1610    1.0042621   -24.346602     300.9219 
    1620    1.0062249   -569.38134    312.96225 
    1630    1.0083457   -612.94696    314.09261 
    1640    1.0106439    166.85459     297.0881 
    1650    1.0129223    730.61286    293.39503 
    1660    1.0150121    812.32711    291.95898 
    1670    1.0168869     554.3003    297.64177 
    1680    1.0186058    614.12297     278.7584 
    1690    1.0201662    394.90778    285.05167 
    1700    1.0216025    547.03423    279.58628 
    1710    1.0228958    574.66165    278.92896 
    1720    1.0240312    546.71481    278.51159 
    1730    1.0250143     477.5433    289.57528 
    1740    1.0258485    720.71601    288.00465 
    1750     1.026485     788.2344    290.89578 
    1760    1.0268704    1320.1448    279.09654 
    1770    1.0268882    1283.8049    286.19948 
    1780     1.026525    1117.1253    289.84549 
    1790    1.0258302    756.36057    301.69768 
    1800    1.0249035    472.79457    306.58443 
    1810    1.0238098    573.43222    297.27124 
    1820    1.0225429    465.69839    294.66018 
    1830    1.0211306   -49.829185    312.77009 
    1840    1.0197097   -375.80627    319.21022 
    1850    1.0183738   -428.44286    304.21491 
    1860    1.0171635   -795.37017    323.49988 
    1870    1.0161257    139.12539    292.96789 
    1880    1.0150819   -287.46334     305.2757 
    1890    1.0140917   -625.48586    301.05232 
    1900    1.0132819   -1069.4734    299.30792 
    1910    1.0127645   -988.06627    285.02195 
    1920    1.0125324   -898.17964    300.33014 
    1930    1.0125393   -246.62987    290.44996 
    1940    1.0126306     31.82429    281.00805 
    1950    1.0127278   -84.045013      294.931 
    1960    1.0128271    435.79366    306.83254 
    1970    1.0127826    1468.0461    294.50773 
    1980    1.0123277    1557.0039    300.59468 
    1990    1.0114075    1084.2964    292.10664 
    2000    1.0101672   -50.219766    307.74819 
    2010    1.0088745   -100.96375     297.9328 
    2020    1.0075878   -8.2769258     290.4682 
    2030    1.0062771      -207.63      299.092 
    2040    1.0050033   -472.71114    319.95971 
    2050    1.0038014    326.78773    284.60837 
    2060    1.0025166    63.145234    292.74821 
    2070    1.0011682   -351.78302    298.82913 
    2080   0.99989775   -860.68115    308.98019 
    2090   0.99884368   -1058.2039    311.70514 
    2100   0.99805902    -626.6091    311.98897 
    2110   0.99744435    -379.4395    306.65699 
    2120   0.99693114   -445.19507    309.76637 
    2130   0.99651897   -206.86733    300.90636 
    2140    0.9961575    19.203862    296.52235 
    2150   0.99579209   -10.285682    300.24674 
    2160   0.99541953   -327.35862    317.92338 
    2170   0.99510853   -13.454119    296.36936 
    2180   0.99479771    221.00877     286.0002 
    2190   0.99441539    182.05049    295.65834 
    2200   0.99396299    15.417447    299.51105 
    2210   0.99348071    89.392986    294.84491 
    2220    0.9929675   -393.97468    311.70885 
    2230   0.99255403   -1152.6784     323.0879 
    2240   0.99247179   -1746.5677    326.03292 
    2250   0.99288803   -1377.1793    308.53009 
    2260   0.99374412   -1390.5677     315.7061 
    2270   0.99503686   -1228.3312    309.20726 
    2280   0.99672415   -260.44412    287.70044 
    2290   0.99856367    392.43269    293.38036 
    2300    1.0003616    675.94133    292.28693 
    2310    1.0020249    690.56984     307.2329 
    2320     1.003521    1185.8295    294.74642 
    2330    1.0047451    1016.0797    294.51482 
    2340    1.0057004    1001.7823    289.52105 
    2350    1.0063887    840.30671    289.17356 
    2360    1.0068598    289.96727       292.84 
    2370    1.0072617     -345.552    289.69261 
    2380    1.0077879    -959.2488    305.65921 
    2390    1.0085925   -629.68603    293.54722 
    2400    1.0096196   -453.79575    312.63496 
    2410    1.0107867    555.26949    306.46451 
    2420    1.0118299    1534.1033    303.61538 
    2430    1.0124457    2350.1541    289.64575 
    2440    1.0123947    2410.7239    291.19296 
    2450    1.0116311    1955.0517    299.86728 
    2460    1.0102396    1854.4848    262.21117 
    2470    1.0082982     291.4682    287.97194 
    2480    1.0061857   -851.03806    288.20467 
    2490    1.0042478   -1283.8488    273.10464 
    2500    1.0026439    -1699.854    281.75956 
    2510    1.0014767   -1521.2654    268.56212 
    2520    1.0007488   -1847.4404    283.22003 
    2530    1.0005281   -1674.5516    282.81341 
    2540    1.0007898   -1012.8576    258.39366 
    2550    1.0013985   -1230.9089     284.4933 
    2560    1.0023637   -938.93153     287.8739 
    2570    1.0036429   -842.81222    286.65985 
    2580    1.0052159   -786.16864    287.18487 
    2590    1.0070697   -706.67979    296.51015 
    2600    1.0091834   -547.17711      307.488 
    2610    1.0115036    87.741634    302.43623 
    2620    1.0138644    486.64366    302.68677 
    2630    1.0161497      761.481    294.75493 
    2640    1.0182689    596.35597    302.84901 
    2650    1.0202584    665.80342    306.22748 
    2660     1.022084    978.85327    315.30611 
    2670    1.0236295    2094.8248    303.97233 
    2680    1.0246339    1885.5256    301.63531 
    2690    1.0251252    332.83507    317.42781 
    2700    1.0254925    41.120428    306.31685 
    2710    1.0258474    96.229129    293.26447 
    2720    1.0261984   -611.01233    296.58826 
    2730    1.0267173    -837.2985    284.43795 
    2740    1.0274765   -323.07515     266.4788 
    2750    1.0283639   -357.29603    263.04159 
    2760    1.0293838   -874.94119    272.22437 
    2770    1.0306746   -895.88926     285.0864 
    2780     1.032225    74.042489    275.17604 
    2790    1.0337948    678.31109    288.27678 
    2800      1.03516    1905.2677    254.58529 
    2810    1.0360428    1586.4899    280.63187 
    2820    1.0364542    1134.8368    289.29772 
    2830    1.0365492    276.21544    311.16324 
    2840    1.0365163    750.74432    293.74168 
    2850    1.0362526    1590.1795      277.961 
    2860    1.0355226    1781.2268    273.53899 
    2870    1.0342985    525.18405    300.75997 
    2880    1.0328619     393.5939    291.73675 
    2890    1.0312856    478.38167    291.26946 
    2900    1.0295467    347.03485    301.40272 
    2910    1.0276585    794.78563    283.19238 
    2920    1.0255341    527.00437    295.02865 
    2930    1.0232184    270.81373     302.3169 
    2940    1.0207756    759.92276    294.79767 
    2950    1.0180788    1160.0966    286.78073 
    2960    1.0150409    306.45263    315.57655 
    2970    1.0118556     168.6205    303.92708 
    2980    1.0085899    384.60384    293.74803 
    2990    1.0052019    55.348463    303.41399 
    3000    1.0017903   -834.55078    323.82718 
    3010   0.99860155   -1542.1782    312.43541 
    3020   0.99584855   -1592.8852    305.67193 
    3030   0.99353057   -830.98311    305.99643 
    3040   0.99146393   -512.06766    322.96214 
    3050    0.9895251    18.439759    299.52418 
    3060   0.98759068    87.717767    280.79347 
    3070   0.98564128   -528.60651    287.21915 
    3080   0.98383388   -1164.8327    290.53287 
    3090   0.98236471   -1614.4451    283.25729 
    3100   0.98136656   -1981.6369    292.43583 
    3110   0.98093321   -1782.9571     283.0013 
    3120   0.98102444   -1518.1769     268.5972 
    3130   0.98157665   -1786.3744     292.6389 
    3140   0.98263525   -1634.4965     307.0409 
    3150   0.98415759   -540.55666    294.88971 
    3160   0.98586287    365.68931    281.75809 
    3170   0.98749602    337.24187    284.62883 
    3180   0.98902913    549.12244     280.8854 
    3190    0.9904047    907.12507    280.90477 
    3200   0.99153826    829.66453    298.54926 
    3210   0.99241035    1234.8893    282.80064 
    3220   0.99295095    794.72454    331.99331 
    3230   0.99320246    1879.2317    304.61845 
    3240   0.99296171    1325.2011    322.32582 
    3250   0.99231637    595.65519    327.40269 
    3260   0.99147889    382.90467    314.92296 
    3270   0.99053127   -29.830155    314.26409 
    3280    0.9895739   -190.74453    299.58074 
    3290    0.9886828   -624.96479    300.78273 
    3300   0.98795574   -912.01553    305.53546 
    3310   0.98749093   -1035.8046     311.4871 
    3320   0.98729525   -280.23884    286.70604 
    3330   0.98720572   -291.20964    304.34724 
    3340   0.98716854    364.99707    290.80555 
    3350   0.98704249    754.21924    286.11334 
    3360   0.98669469    778.92893    285.51117 
    3370   0.98611213    534.92455    288.54604 
    3380   0.98535855    507.78481     275.3649 
    3390   0.98446674   -104.80565    297.06833 
    3400   0.98356514     96.40635    274.32602 
    3410   0.98264687   -257.48425    289.14539 
    3420   0.98180169   -872.71566    293.55351 
    3430   0.98119597   -1182.5148    291.65602 
    3440   0.98092917   -1294.4241    311.97897 
    3450   0.98100747   -469.68724    298.59649 
    3460    0.9812523   -426.20048    313.27986 
    3470    0.9816076    65.094471    300.00582 
    3480   0.98195632    228.18842    298.83921 
    3490   0.98226743   -459.74661    314.64883 
    3500   0.98269695   -478.80793    314.16802 
    3510   0.98325622    32.771256    315.99194 
    3520   0.98382641    267.59245    306.16114 
    3530   0.98433113    128.58482    294.56701 
    3540   0.98481923   -471.06967    311.96299 
    3550   0.98544458   -772.73001    294.73354 
    3560   0.98633791   -1724.5304    310.45828 
    3570   0.98772558   -1725.6837    308.98463 
    3580   0.98962656   -839.56389    284.22879 
    3590   0.99185805   -1002.0302     295.7911 
    3600   0.99440252   -606.25923    283.53856 
    3610   0.99718519   -413.48087    288.04562 
    3620    1.0001216    359.51005    271.69629 
    3630    1.0030213    612.82867    290.71815 
    3640    1.0057836    780.88593    298.48903 
    3650    1.0083706    543.96151    314.09636 
    3660    1.0108195    994.61376    301.35861 
    3670    1.0130167    1230.5322    298.09575 
    3680    1.0148895    1094.6734     309.2494 
    3690    1.0164624    972.27124    306.73535 
    3700    1.0177484    1655.4966    291.91352 
    3710    1.0185762    1876.2215    286.32474 
    3720    1.0188967    725.25301    314.89682 
    3730    1.0189729    494.02004    293.60839 
    3740    1.0189114    284.51927    286.25659 
    3750    1.0187756   -209.62341    292.35559 
    3760    1.0186979   -936.02276    301.84183 
    3770    1.0188857   -1250.8549    294.90727 
    3780    1.0194377   -823.26257    280.25635 
    3790    1.0202384    -361.4396    293.92808 
    3800    1.0211781   -497.74244    323.37323 
    3810    1.0222245    937.55664    282.00244 
    3820    1.0230503    1503.9806    276.35903 
    3830    1.0234632    1100.0324    297.71512 
    3840    1.0235371    891.82574    312.04439 
    3850    1.0233387    995.05255    316.28068 
    3860     1.022822    1405.5329    289.31532 
    3870     1.021914    804.84067    318.78474 
    3880    1.0207156     748.9074     309.5673 
    3890    1.0192807    489.49348    291.06089 
    3900    1.0177065   -717.37446     308.8099 
    3910    1.0162856   -1358.1996    318.01267 
    3920     1.015202   -836.71017    292.11084 
    3930    1.0143807     -1137.52    294.33322 
    3940     1.013856   -933.78237    280.15173 
    3950    1.0136091   -992.95188    296.99146 
    3960    1.0136293   -640.58643    285.30979 
    3970    1.0138605   -809.15701    289.50934 
    3980    1.0143143   -415.03469    293.02752 
    3990    1.0148923    330.26199    291.91158 
    4000       1.0154    593.75496    279.28879 
    4010    1.0157614    205.06254    289.07947 
    4020    1.0160596    188.40226    288.91611 
    4030    1.0163042    235.08962    287.86642 
    4040    1.0164947   -155.57146    319.08448 
    4050    1.0166848    895.02918    281.07959 
    4060    1.0166619    599.91278    301.23666 
    4070    1.0164244    756.30646    302.20229 
    4080    1.0159697    799.96919    305.55967 
    4090     1.015254    940.82647    292.51841 
    4100      1.01426    511.93485    305.52418 
    4110    1.0130621    519.74419    315.90011 
    4120    1.0116645      939.175    296.69405 
    4130    1.0099459    1146.7505    289.53633 
    4140    1.0078535    697.77918    292.30138 
    4150    1.0054907    147.74465    291.55043 
    4160    1.0030155   -239.92049    294.99071 
    4170    1.0005451   -657.01767    314.37598 
    4180   0.99816819   -103.99012    317.79674 
    4190   0.99574867    709.23482     294.4774 
    4200   0.99309722    53.098156    316.64886 
    4210   0.99035683   -907.31623    340.21594 
    4220   0.98780707    -1303.287    332.39064 
    4230   0.98558111   -1405.2632    305.36498 
    4240   0.98374008   -2036.2428    325.10411 
    4250   0.98241623   -1589.5311    303.30293 
    4260   0.98154529    -1002.268    273.09716 
    4270   0.98097928   -1612.7238    298.20538 
    4280   0.98086064   -1994.7857    301.72106 
    4290   0.98133279   -1933.9602    294.85638 
    4300   0.98237564   -1277.4684    298.64243 
    4310   0.98381581   -244.86172    304.56625 
    4320   0.98537083    308.24681    297.06636 
    4330   0.98690071    46.118612    307.77657 
    4340   0.98843188    434.35851    303.31097 
    4350   0.98986392    1000.5872    311.26632 
    4360   0.99103266    1436.8824    311.39264 
    4370   0.99180887    1566.8409    298.99578 
    4380   0.99216008    995.34666    305.66169 
    4390   0.99220886    639.02288    298.41578 
    4400   0.99206566    383.44194    290.46079 
    4410   0.99181219   -45.302552    292.71951 
    4420   0.99154566    1.2506597    279.77304 
    4430   0.99127569    60.078126    274.85603 
    4440   0.99099266   -222.14645    284.92479 
    4450    0.9907525    -228.4477    278.74615 
    4460   0.99060786   -943.14361    291.93359 
    4470    0.9906896     -364.365    268.13979 
    4480   0.99090641   -243.82243    290.74094 
    4490   0.99117903    71.830444    298.84312 
    4500   0.99143765    482.82243    310.02575 
    4510   0.99155545    757.75351    315.91221 
    4520   0.99146035    531.89391    329.47469 
    4530   0.99120508     333.0953    342.98153 
    4540   0.99081801    823.66261    317.52323 
    4550   0.99020829    382.28437    339.95302 
    4560   0.98944073    616.43263    311.17685 
    4570   0.98851449   -172.46976    305.99262 
    4580   0.98762752   -1224.7195    316.83258 
    4590   0.98704634   -1073.5988    302.08437 
    4600   0.98677155   -810.31382    314.54117 
    4610   0.98672058   -360.82502    293.86729 
    4620   0.98679596   -178.78788    283.31032 
    4630   0.98692887   -278.60121     302.8538 
    4640   0.98712127     250.9867    280.25507 
    4650   0.98727984   -195.80009    291.91862 
    4660   0.98747265   -342.90858     304.8263 
    4670   0.98774378     528.3688    286.25523 
    4680   0.98787108    1176.2144    270.09271 
    4690   0.98766938    976.49827    285.05927 
    4700   0.98717567    471.68024    316.75468 
    4710   0.98649299    1158.6726    281.63934 
    4720    0.9855171    387.33881    312.91121 
    4730   0.98436871    457.51204    319.92071 
    4740      0.98306    1113.5844    310.08951 
    4750   0.98140143    1750.0146    290.93166 
    4760   0.97923175    1499.3785    300.27088 
    4770   0.97661338    567.30268    309.84918 
    4780   0.97379675    32.919261    303.08171 
    4790   0.97096588   -709.00837    330.88693 
    4800   0.96827591   -91.133958    309.60818 
    4810   0.96564976   -403.04834    302.34561 
    4820   0.96314215   -1360.0935    302.78854 
    4830   0.96101849    -1869.325    298.08549 
    4840   0.95943644   -2040.8838    290.33511 
    4850   0.95845376   -2425.1441     302.9598 
    4860   0.95817775   -2594.3838      308.412 
    4870    0.9586639   -2700.3935    293.10175 
    4880   0.95996608    -3103.058    309.54226 
    4890   0.96215697   -2287.2624    307.50482 
    4900   0.96502285   -1024.5835    306.16905 
    4910    0.9682189   -187.84111    291.93589 
    4920   0.97152998   -595.96146    325.88301 
    4930   0.97497679     533.7541    309.52273 
    4940   0.97828333    1815.9769    313.87557 
    4950   0.98104026    3214.8748    299.54399 
    4960   0.98291131    2768.0136    338.47239 
    4970   0.98393035    2978.6958    311.00465 
    4980   0.98409723    2754.6426    312.62832 
    4990   0.98346232    1977.6235    318.22813 
    5000   0.98225539    836.26032    326.78709 
Loop time of 29.6085 on 3 procs for 5000 steps with 375 atoms

Performance: 14.590 ns/day, 1.645 hours/ns, 168.870 timesteps/s
99.3% CPU use with 3 MPI tasks x 1 OpenMP threads

MPI task timing breakdown:
Section |  min time  |  avg time  |  max time  |%varavg| %total
---------------------------------------------------------------
Pair    | 22.11      | 23.543     | 26.024     |  36.3 | 79.51
Bond    | 0.0060031  | 0.0068438  | 0.0082862  |   1.2 |  0.02
Neigh   | 0.77148    | 0.77185    | 0.77237    |   0.0 |  2.61
Comm    | 1.0072     | 3.4937     | 4.9296     |  94.4 | 11.80
Output  | 0.014134   | 0.026628   | 0.051577   |  10.8 |  0.09
Modify  | 1.6573     | 1.6875     | 1.7065     |   1.7 |  5.70
Other   |            | 0.07913    |            |       |  0.27

Nlocal:    125 ave 134 max 120 min
Histogram: 2 0 0 0 0 0 0 0 0 1
Nghost:    6097.33 ave 6138 max 6075 min
Histogram: 2 0 0 0 0 0 0 0 0 1
Neighs:    70823 ave 76382 max 67236 min
Histogram: 1 1 0 0 0 0 0 0 0 1

Total # of neighbors = 212469
Ave neighs/atom = 566.584
Ave special neighs/atom = 2
Neighbor list builds = 186
Dangerous builds = 0
unfix stab_iso
unfix stab_constrain

reset_timestep 0
fix iso all npt temp ${Text} ${Text} $(100.0*dt) iso ${Pext} ${Pext} $(1000.0*dt)
fix iso all npt temp 298 ${Text} $(100.0*dt) iso ${Pext} ${Pext} $(1000.0*dt)
fix iso all npt temp 298 298 $(100.0*dt) iso ${Pext} ${Pext} $(1000.0*dt)
fix iso all npt temp 298 298 100 iso ${Pext} ${Pext} $(1000.0*dt)
fix iso all npt temp 298 298 100 iso 1 ${Pext} $(1000.0*dt)
fix iso all npt temp 298 298 100 iso 1 1 $(1000.0*dt)
fix iso all npt temp 298 298 100 iso 1 1 1000
#fix iso all nvt temp ${Text} ${Text} $(100.0*dt)
fix constrain all rattle 1.0e-5 100 0 b 1 a 1
  0 = # of size 2 clusters
  0 = # of size 3 clusters
  0 = # of size 4 clusters
  125 = # of frozen angles
  find clusters CPU = 0.000544071 secs

thermo_style custom step density etotal press temp
thermo_modify flush yes
    # insures the output is dumped in the file and not buffered or something
thermo ${NdumpStats}
thermo 10
dump trj all atom ${NdumpFrames} wat.lammpstrj
dump trj all atom 10000 wat.lammpstrj

run ${Nrun}
run 500000
Per MPI rank memory allocation (min/avg/max) = 9.087 | 9.106 | 9.125 Mbytes
Step Density TotEng Press Temp 
       0   0.98225539   -1335.5321    1160.1532    326.78709 
      10   0.98222167   -1335.6363    654.35367    330.69535 
      20   0.98213489   -1336.3308    725.73733    315.47091 
      30   0.98199615    -1337.429    520.25433    320.04018 
      40   0.98182258    -1338.919   -10.742586    324.55229 
      50   0.98164838   -1340.8634   -458.35472    326.47634 
      60   0.98150679   -1343.4078   -596.92856    328.80676 
      70   0.98140259   -1346.2986    -277.6875    316.58122 
      80    0.9813245   -1349.5934   -694.85623    313.94684 
      90   0.98129647   -1352.8046   -994.37712    302.18194 
     100    0.9813435   -1355.9903   -1635.6798    311.81792 
     110     0.981509   -1359.2346   -2038.7906    318.56501 
     120   0.98181829   -1362.2242   -1682.6265     295.7043 
     130   0.98225611   -1364.7266   -1769.6622    294.75197 
     140   0.98282429   -1366.7413   -1907.6468    293.86096 
     150   0.98353489   -1368.5604   -2264.8703     321.2915 
     160   0.98440558    -1370.301   -1816.8405    309.00407 
     170   0.98541658   -1372.0147   -1605.6032    313.49166 
     180   0.98654126   -1373.4741   -842.47711    291.49353 
     190   0.98773326   -1374.6569   -285.58385    297.32942 
     200   0.98894685   -1375.6639    152.41099    306.41239 
     210   0.99015427   -1376.6487      289.206    302.38663 
     220   0.99134501   -1377.5589   -18.270648    301.87708 
     230   0.99253641   -1378.5347   -42.661797    305.72891 
     240   0.99372819   -1379.4519    583.95981    297.69973 
     250     0.994877   -1380.2633    1373.1723     286.1466 
     260   0.99593124   -1380.7734    1540.1537    279.65139 
     270   0.99687783   -1381.2063    996.14875    304.77482 
     280   0.99774581   -1381.6057    1146.8474    297.14444 
     290   0.99853045   -1381.9893    1305.7661    291.54657 
     300   0.99922683   -1382.3598    629.14399    306.17386 
     310   0.99987489   -1382.8032    119.32219    306.12103 
     320    1.0005137   -1383.4704   -127.40341    312.09601 
     330    1.0011575   -1384.2687    47.553159    302.31584 
     340    1.0018012   -1385.2017   -18.807487    300.59501 
     350    1.0024505    -1386.105   -576.97423    294.75163 
     360    1.0031488   -1387.2271   -1660.2392    316.71694 
     370    1.0039577   -1388.5749   -1192.3026    304.31222 
     380    1.0048558   -1390.0747   -461.62459    293.88254 
     390    1.0057917   -1391.4948   -334.96286    287.96781 
     400    1.0067602   -1393.0075   -949.25306    301.97121 
     410    1.0077889   -1394.5167   -81.731009    285.56365 
     420    1.0088274   -1395.9459    787.95519    279.80032 
     430    1.0098131   -1397.1124    953.05707    281.97134 
     440    1.0107297   -1398.2533    1076.9393    285.93296 
     450    1.0115679   -1399.1332    1312.1356    268.87032 
     460    1.0123123   -1399.8231    1200.8555    284.27591 
     470    1.0129681   -1400.4096    1286.2331    295.28173 
     480    1.0135305    -1401.004    1280.6189    296.80549 
     490    1.0139983   -1401.6585     1357.751    292.20125 
     500     1.014369    -1402.435    1107.6341    302.37576 
     510    1.0146556   -1403.2169    1000.0213    287.13756 
     520     1.014877   -1404.2707    107.23185    316.43525 
     530     1.015079   -1405.6213    366.25738    302.82891 
     540    1.0152583   -1407.4359    450.14132    304.93873 
     550    1.0154045    -1409.498    258.25737     293.4448 
     560    1.0155373   -1411.9419   -503.81551    300.31944 
     570    1.0157007   -1414.5585    -633.6263    291.17666 
     580    1.0159129   -1417.5319   -831.77649    303.02734 
     590     1.016181   -1420.6303   -495.22058    292.32212 
     600    1.0164877   -1423.8022   -333.57391    287.48054 
     610    1.0168187   -1426.6622   -71.583573    281.08171 
     620    1.0171564    -1429.387    63.217793    290.09558 
     630    1.0174858   -1431.7576    661.07624    274.33403 
     640    1.0177672    -1433.553    1161.9196    260.00167 
     650    1.0179672   -1434.8792    1198.5066    270.69659 
     660    1.0180766   -1435.7054    1507.1549    256.00183 
     670    1.0180797   -1435.9256    1227.8149    243.80108 
     680    1.0180024   -1435.6312   -451.54755    278.73364 
     690     1.017945   -1434.8162   -639.42087    264.84717 
     700    1.0179356   -1433.7223   -507.20018     259.6837 
     710    1.0179652   -1432.1622   -649.25809    262.16383 
     720    1.0180351    -1430.123   -92.076328    253.18615 
     730    1.0181193   -1427.6744   -289.12351    271.46779 
     740    1.0182243   -1424.7584   -585.05865    275.25736 
     750    1.0183751   -1421.7561   -1016.2036    303.39304 
     760    1.0185892   -1418.9041   -255.52985    289.53267 
     770    1.0188254   -1416.4803     216.1488    295.49153 
     780    1.0190445   -1414.2937    716.97591    285.39276 
     790    1.0192185   -1412.3919     393.0467    297.29323 
     800    1.0193583   -1410.6738    538.13785    297.86771 
     810    1.0194639   -1409.2868    242.87333    300.99449 
     820    1.0195507    -1408.096    47.619042    294.91265 
     830    1.0196352   -1407.1314   -149.84495    309.35785 
     840    1.0197271   -1406.3527    39.128408    300.25823 
     850    1.0198147   -1405.6962    411.02759    281.95284 
     860    1.0198807   -1405.0051   -197.15953    296.27306 
     870    1.0199604   -1404.2781   -906.51045    309.49072 
     880    1.0201026   -1403.6526   -902.37049    291.14075 
     890    1.0203141   -1403.1542   -879.82132    298.88739 
     900     1.020587    -1402.522   -468.14859    285.32868 
     910    1.0209044   -1401.9278   -1094.0197    305.57336 
     920    1.0212987   -1401.2351   -1191.4262    286.77856 
     930    1.0217913    -1400.635    -1977.136    306.46427 
     940    1.0224262   -1399.9717   -2090.3716    297.48368 
     950    1.0232241   -1399.5454   -2323.3616    313.30735 
     960    1.0241873   -1399.0616   -1361.1902    289.48517 
     970    1.0252669   -1398.7255   -980.44204    301.79814 
     980    1.0264177   -1398.1239    138.92181    279.77011 
     990    1.0275773   -1397.4789    292.73579    294.65588 
    1000    1.0287225   -1396.5393    450.44717    279.59324 
    1010    1.0298523   -1395.4774   -599.30423     306.6216 
    1020    1.0310287   -1394.3278   -896.59545    304.34763 
    1030    1.0322785   -1393.2303    -772.1464    306.66306 
    1040    1.0335923   -1392.1473   -264.46948    303.88509 
    1050    1.0349377    -1391.056    203.16449    289.90585 
    1060    1.0362851   -1389.7836   -116.23311    294.66969 
    1070    1.0376496   -1388.2894   -178.72356    309.99276 
    1080     1.039035   -1386.7101     374.0293     308.5337 
    1090     1.040402   -1385.1018    1264.4392    299.87342 
    1100    1.0416851   -1383.2505    2322.0531    281.21629 
    1110    1.0428143   -1381.0667    2405.7724    316.84628 
    1120    1.0437676   -1378.5346    3024.9813    312.92512 
    1130    1.0445109   -1376.0907    3172.9477    305.10798 
    1140    1.0450321   -1373.5501    2489.0909    312.98761 
    1150    1.0453717   -1370.9323    1739.1891    346.75973 
    1160    1.0455749    -1368.605    2253.8318    328.64462 
    1170    1.0456153   -1366.8513    2736.4706    325.50981 
    1180    1.0454544   -1365.4542    2762.8326    344.49064 
    1190    1.0450855   -1364.5658    2918.8213    324.30311 
    1200    1.0445045   -1364.2601    2445.5737    334.02904 
    1210    1.0437297   -1364.4386    2755.5505    327.62334 
    1220    1.0427532   -1365.2122    2138.7148    327.80081 
    1230    1.0416117   -1366.4903    1076.7917     326.4254 
    1240    1.0403815   -1368.4562    312.89601     325.8865 
    1250    1.0391172   -1371.0972   -291.83122    317.14809 
    1260     1.037864   -1374.1324   -730.65323    293.84936 
    1270    1.0366561   -1377.4703   -1338.3073    306.55623 
    1280    1.0355283   -1381.1766   -1076.8479    299.56612 
    1290    1.0344715   -1384.7444   -724.68197     276.6278 
    1300    1.0334642   -1387.9111   -1041.3618    275.80201 
    1310    1.0325283    -1390.557   -2061.3797     279.4761 
    1320    1.0317347   -1392.8213   -3146.8282    296.94189 
    1330    1.0311556   -1394.9942   -2650.8339    295.95749 
    1340    1.0307601   -1396.7973   -1293.9123    286.05253 
    1350    1.0304614   -1398.4863   -965.24141    300.25871 
    1360    1.0302257     -1399.74   -340.30623    271.13796 
    1370    1.0300209    -1400.727   -653.80456    285.37059 
    1380    1.0298599   -1401.3695   -955.31286    286.84401 
    1390     1.029768   -1401.7548   -1424.3008    278.87581 
    1400    1.0297824   -1401.8913    -2003.299    280.28096 
    1410    1.0299423   -1401.7925   -2358.5064    290.06331 
    1420    1.0302742   -1401.6039   -2177.5775    293.58496 
    1430    1.0307705   -1401.3579   -1787.0866    287.65757 
    1440    1.0314041   -1400.9739   -1198.9701    274.84543 
    1450    1.0321395   -1400.3782   -1070.9139    277.20646 
    1460    1.0329666   -1399.4849   -1595.3122     293.1152 
    1470    1.0339163   -1398.5376   -1299.5872    294.93385 
    1480    1.0349748   -1397.5062   -672.14091    279.58685 
    1490    1.0361044   -1396.3838    -867.4426    303.03133 
    1500    1.0373102    -1395.193   -530.82074    297.27072 
    1510     1.038574   -1394.0467    -263.5499    304.57748 
    1520    1.0398745   -1393.0219    331.55812    309.90195 
    1530    1.0411656   -1392.0234    1292.8689    301.68557 
    1540    1.0423885   -1391.2287     1425.174    315.83897 
    1550    1.0435218   -1390.5934    1689.5578    312.15306 
    1560    1.0445446   -1390.1484    2385.0886    298.46484 
    1570    1.0454073   -1389.7673    3044.6825    294.60522 
    1580    1.0460586   -1389.3224     3351.393    288.15866 
    1590    1.0464752     -1388.76    3027.1941    288.76017 
    1600    1.0466787   -1388.1191    2141.4262    302.56757 
    1610    1.0467194   -1387.3139    2191.6074    278.90728 
    1620      1.04661   -1386.3728     1118.879    299.05791 
    1630    1.0464102   -1385.0737    466.80637    298.61173 
    1640    1.0461697   -1383.5659    210.83886    297.38627 
    1650    1.0459095    -1381.717   -101.86569    310.70752 
    1660    1.0456497   -1379.4754   -124.75211    319.49936 
    1670    1.0453919   -1377.0505     208.4914    329.31877 
    1680    1.0451066   -1374.3959    1169.9843    325.92469 
    1690    1.0447343   -1371.7819    1584.3795    335.01503 
    1700    1.0442379   -1369.0791    1604.3805    326.52374 
    1710    1.0436188   -1366.5735    918.56513    342.73955 
    1720    1.0429135   -1364.1808    618.18628    330.56425 
    1730    1.0421535   -1362.2372    80.342146    330.88932 
    1740    1.0413664   -1360.5555   -60.141627    345.39101 
    1750    1.0405687   -1359.4791   -256.47625    349.88154 
    1760     1.039774    -1359.183   -96.105902    326.73059 
    1770    1.0389723   -1359.3528   -132.48466    310.18734 
    1780    1.0381691   -1359.8827   -875.57351    324.54592 
    1790    1.0374061   -1360.6972   -787.84912    308.98317 
    1800    1.0366895   -1361.8566   -775.78257    302.58529 
    1810    1.0360175   -1363.1258   -1272.9284    306.45834 
    1820    1.0354249   -1364.7056   -1847.4326    313.74619 
    1830    1.0349538   -1366.6009   -1802.2536    305.03531 
    1840    1.0346004   -1368.6096   -861.23945    280.01247 
    1850    1.0343088   -1370.4156   -657.63509    276.70993 
    1860    1.0340608   -1372.0379   -1036.9086    278.75115 
    1870    1.0338832   -1373.3997   -1265.1219    282.33613 
    1880    1.0337984   -1374.7935   -2038.8829    303.19437 
    1890    1.0338547   -1376.1205   -1804.6571    280.68759 
    1900    1.0340534   -1377.3716   -2183.7381    297.16684 
    1910    1.0344123   -1378.7906    -1821.766    309.46944 
    1920     1.034906   -1380.2358     -282.203    288.46982 
    1930    1.0354419   -1381.7542   -86.888863    304.61044 
    1940    1.0359946   -1383.3511    109.78006    294.58191 
    1950    1.0365537   -1385.0004    94.094351    299.00618 
    1960     1.037118   -1386.7847   -2.0796123    302.85651 
    1970    1.0376978   -1388.6539   -19.011294    292.88104 
    1980    1.0382915   -1390.4983     197.0737    287.35521 
    1990    1.0388904   -1392.1852   -218.70593    283.42402 
    2000    1.0395221   -1393.8487   -880.93367    295.41935 
    2010    1.0402309   -1395.6192    -1094.087    308.91209 
    2020    1.0410342   -1397.5721   -638.68732       296.95 
    2030    1.0419086   -1399.5184   -390.55243    295.05617 
    2040      1.04283   -1401.6131    124.06025    307.77573 
    2050    1.0437595   -1403.8293    1266.2084    300.77589 
    2060    1.0446216   -1406.0829     1857.183    291.44087 
    2070    1.0453697    -1408.247    1941.1603    293.46935 
    2080    1.0459955   -1410.4965    1387.6494    297.08563 
    2090     1.046533   -1412.5898    871.56195    287.13295 
    2100    1.0470197   -1414.6288    316.42855    289.67456 
    2110    1.0474959   -1416.5078   -252.10953    291.64507 
    2120    1.0479933   -1418.1177    183.00981    271.02589 
    2130    1.0484968   -1419.4847    13.645859     286.6925 
    2140    1.0490004   -1420.4147    684.05667    260.53948 
    2150    1.0494776   -1421.0207    222.96101    271.64836 
    2160    1.0499472   -1421.1068   -424.86103    270.08445 
    2170    1.0504589   -1420.9852   -815.97119     286.1058 
    2180    1.0510359   -1420.5231   -268.23599     273.5232 
    2190    1.0516491   -1419.8675    16.480625    277.67114 
    2200    1.0522755   -1418.8185    144.69581    269.98771 
    2210    1.0529094   -1417.4015   -89.604141    280.62183 
    2220    1.0535612   -1415.6698    220.09044    281.14811 
    2230    1.0542096   -1413.5445    488.00454    278.43538 
    2240    1.0548412   -1411.0837    292.84033     282.3646 
    2250    1.0554693   -1408.2564     -356.187    302.11099 
    2260    1.0561287   -1405.2163    107.58922     310.6446 
    2270    1.0567873   -1402.2803    1555.4283    281.44958 
    2280    1.0573549   -1399.4021    1647.6345    300.23478 
    2290    1.0578048   -1396.4129    2088.8064    308.90829 
    2300    1.0581122   -1393.8078    2329.2734    311.00458 
    2310    1.0582554   -1391.7911    2161.3662    329.28327 
    2320    1.0582346   -1390.3641    2188.1585    318.79683 
    2330    1.0580552   -1389.7507    2055.1425    322.31359 
    2340    1.0577121   -1389.4864    2785.2447    298.98821 
    2350    1.0571576   -1389.4368    2924.9552     299.8187 
    2360    1.0563859   -1389.6092    1763.9182    316.92874 
    2370     1.055464   -1389.7693    932.54072    302.33255 
    2380    1.0544604   -1390.1267   -89.930667    313.19319 
    2390    1.0534419   -1390.4184   -628.51168    299.78879 
    2400    1.0524512   -1390.7907   -960.05121    306.52721 
    2410    1.0515088   -1391.0861   -437.19014    283.58711 
    2420    1.0505881   -1391.2748    -489.0096    292.67399 
    2430    1.0496873   -1391.4348   -441.39515     303.2654 
    2440    1.0487988   -1391.5256    162.65603    281.12227 
    2450    1.0478877   -1391.4971    93.661072    284.24819 
    2460    1.0469566   -1391.2956   -218.79174    294.29379 
    2470    1.0460198   -1390.8995    347.41054    277.38331 
    2480    1.0450493    -1390.405    143.78503    298.31534 
    2490    1.0440512    -1389.756   -21.605154    301.66525 
    2500      1.04304   -1389.1495    92.730903    293.64232 
    2510    1.0420104   -1388.4815   -348.75186    309.35807 
    2520    1.0409935   -1387.8908   -973.96813    314.98702 
    2530    1.0400312   -1387.4806   -859.84222    297.66871 
    2540    1.0391191   -1387.1343   -682.24869    304.37268 
    2550    1.0382409   -1386.9169   -53.796223    309.21617 
    2560    1.0373513   -1386.8146    987.04148    293.22158 
    2570    1.0363837   -1386.7331    1087.4534    294.57766 
    2580    1.0353268   -1386.6557    763.79436    304.45448 
    2590    1.0341979   -1386.5155    388.24271    304.00801 
    2600    1.0330313   -1386.5737   -271.74524    314.72926 
    2610    1.0318667   -1386.6792    -351.4116    295.72599 
    2620     1.030721   -1386.8909   -995.52835    311.90791 
    2630     1.029632   -1387.2823    -1197.505    316.27652 
    2640    1.0286212   -1387.9229   -1343.5262    304.76663 
    2650    1.0276989   -1388.7984   -1440.1928    311.00391 
    2660    1.0268718   -1389.9535   -1362.6346      308.978 
    2670    1.0261337   -1391.2726    -1017.952    294.62039 
    2680    1.0254618   -1392.7421    -335.3186    295.89705 
    2690    1.0248091   -1394.2959    43.418528    299.13401 
    2700    1.0241509   -1396.0638   -200.85826    302.11083 
    2710    1.0235008   -1397.9013   -522.61134    296.83609 
    2720    1.0228863   -1399.8806   -1241.3228     300.1081 
    2730    1.0223592   -1401.9824   -1973.4535    305.77055 
    2740    1.0219664   -1404.1956   -1983.6535     289.1403 
    2750    1.0217214   -1406.4106    -2280.992    294.16558 
    2760    1.0216395   -1408.5522   -2386.7167    289.65823 
    2770    1.0217312   -1410.6367   -2043.9764    286.79997 
    2780    1.0219717   -1412.6097   -1485.3847    293.11948 
    2790    1.0223199   -1414.4931   -727.84096    278.92792 
    2800     1.022732   -1415.9356   -920.66443    269.82752 
    2810     1.023219   -1417.1809   -1697.2391    289.97171 
    2820    1.0238308   -1418.2903   -1616.4715    289.07178 
    2830    1.0245652   -1419.2658   -1159.7757    283.73555 
    2840    1.0253964   -1420.0248   -1279.2797    283.96657 
    2850    1.0263317   -1420.6783    -1778.403     296.3164 
    2860    1.0274034   -1421.3504   -1788.6645    301.05903 
    2870    1.0286138   -1422.0591   -1264.8254    290.02641 
    2880    1.0299264    -1422.672   -264.53391    283.53807 
    2890    1.0312704   -1422.9929    635.50566    282.06247 
    2900    1.0325835   -1423.2366    1093.8793    288.51057 
    2910    1.0338235   -1423.0969     1767.574     266.3072 
    2920    1.0349499   -1422.6874    1528.7344    284.84352 
    2930    1.0359701    -1421.909    1547.2629     284.4534 
    2940    1.0368832   -1420.7941     1494.964    293.25289 
    2950    1.0376892   -1419.3009    1865.7643    286.84882 
    2960    1.0383639   -1417.3764    2263.8921    280.89033 
    2970    1.0388819   -1414.8048    1942.0075    299.06033 
    2980    1.0392571   -1411.5703    1876.6244    288.57014 
    2990    1.0394998   -1407.8649    1586.9069    291.95206 
    3000    1.0396249   -1403.6554    1597.0184    297.14304 
    3010    1.0396296   -1399.3016    1987.1539    289.19214 
    3020    1.0394931   -1395.1214    1860.5218     291.6431 
    3030    1.0392171   -1391.2124    1640.0037    293.82172 
    3040    1.0388199   -1387.7287    1320.6944    292.96015 
    3050    1.0383212   -1384.8479    1377.6335    272.64686 
    3060    1.0377186    -1382.232    1221.8932    300.02067 
    3070    1.0370169   -1379.8916    1538.3478    290.57012 
    3080    1.0362058   -1377.9949    862.18187    308.91347 
    3090    1.0353182   -1376.3037     975.5626    282.75962 
    3100    1.0343639   -1374.8923     13.31343    303.97764 
    3110    1.0333977   -1373.4431   -565.54582    306.09049 
    3120    1.0324696   -1372.2796   -1017.1728    303.63649 
    3130      1.03161   -1371.1968   -1393.2963    295.60121 
    3140    1.0308506   -1370.2209   -2093.7273    319.15353 
    3150     1.030229   -1369.4381   -1265.1827    304.70934 
    3160    1.0297038   -1368.9419    -997.6764     308.7301 
    3170     1.029247   -1368.6108   -955.23392     321.6996 
    3180     1.028856   -1368.5804   -651.30862    315.04793 
    3190    1.0285152   -1368.9574   -957.25353    335.74203 
    3200    1.0282332   -1369.8455   -269.30746    323.72566 
    3210     1.027968   -1371.1352    544.16447    308.43308 
    3220    1.0276692   -1372.7233     43.50501    318.35565 
    3230    1.0273651   -1374.5978   -624.15626    315.35763 
    3240    1.0271031   -1376.6647   -1014.3512    301.87238 
    3250    1.0269207   -1378.9082   -2024.2927    312.35566 
    3260    1.0268781   -1381.2723   -1964.1709    295.66078 
    3270    1.0269806   -1383.4656   -1599.3747    281.27108 
    3280    1.0272036   -1385.3658   -1644.9484    280.65666 
    3290    1.0275499   -1387.1246    -1796.551    295.11215 
    3300    1.0280251   -1388.7665    -1404.154    294.36529 
    3310    1.0286058   -1390.3671   -870.17271    298.19925 
    3320    1.0292521   -1391.8991   -105.51065    298.53678 
    3330     1.029911   -1393.4931    638.00814    305.95137 
    3340    1.0305269   -1395.0287    1228.8213    293.61337 
    3350    1.0310639   -1396.5243    735.68125    303.80453 
    3360    1.0315505   -1398.2086   -100.63327    322.29254 
    3370    1.0320448   -1400.1737   -604.21759    313.20839 
    3380    1.0325898   -1402.3371   -1248.3144     312.9311 
    3390    1.0332293   -1404.7304   -1609.4172    311.18876 
    3400    1.0339842   -1406.9029   -916.64518    279.83038 
    3410    1.0348234   -1408.8929   -1471.7639    301.92611 
    3420    1.0357702   -1410.6944   -1576.8718    287.47277 
    3430    1.0368479   -1412.3351   -2174.1077    291.72815 
    3440    1.0380909   -1413.7943   -2449.5535    299.82409 
    3450    1.0395194   -1415.2692   -2164.4622    304.79838 
    3460    1.0411102   -1416.5192   -936.14419    279.16972 
    3470    1.0427864   -1417.5152   -107.33572    293.11054 
    3480    1.0444745   -1418.0532    1217.7217    276.18436 
    3490    1.0460983   -1418.3711    1034.7114    284.38977 
    3500    1.0476529   -1418.3835    992.36976    285.29675 
    3510    1.0491451   -1418.2699    823.06572    294.91445 
    3520    1.0505857   -1418.1291    742.94334    299.99688 
    3530    1.0519769   -1417.9879    952.92946     299.7579 
    3540     1.053311   -1417.9431    516.00052    306.86817 
    3550    1.0546142   -1417.9768    33.473992    301.35628 
    3560    1.0559199   -1418.1135    130.48955    292.09285 
    3570    1.0572192   -1418.0945    721.13409    283.98465 
    3580    1.0584762   -1417.9331    639.07144     292.6291 
    3590    1.0596913   -1417.7375    861.67529    297.77894 
    3600    1.0608372    -1417.369    2268.3046    275.17357 
    3610    1.0618359   -1416.9058    2027.8091    288.13824 
    3620    1.0626863   -1416.2225    1829.6936    287.50683 
    3630    1.0634072   -1415.5623    1569.8948    310.31463 
    3640    1.0640115   -1415.0933    1732.8879    314.46922 
    3650    1.0644859   -1414.7924    2674.9722    278.26048 
    3660    1.0647756   -1414.4943    2367.8387    299.18459 
    3670    1.0648835   -1414.0561    2484.8827    301.11374 
    3680    1.0648129    -1413.898    2338.5561    310.99807 
    3690    1.0645658   -1413.7533    2299.0972     293.6936 
    3700    1.0641557   -1413.7943    1432.0929     318.5456 
    3710    1.0636273   -1413.9941    1832.3225    311.08045 
    3720    1.0629631   -1414.4467    2126.5735    305.84664 
    3730    1.0621426   -1414.9648    1957.0189    296.04209 
    3740    1.0611764   -1415.5125    1715.7141    302.49882 
    3750    1.0600718   -1416.0419     2167.272    289.99853 
    3760    1.0588092   -1416.4806    1909.2155    289.84134 
    3770    1.0574015   -1416.8472    1508.6217     309.5457 
    3780    1.0558743   -1417.2653    1606.0421    299.07808 
    3790    1.0542275   -1417.7026    1429.1113    286.55628 
    3800    1.0524752   -1417.9943    904.23772    289.31202 
    3810    1.0506485   -1418.0835    711.80164    289.48192 
    3820    1.0487635   -1418.0997    957.14232    287.16441 
    3830    1.0468025   -1418.0039    1499.6513    278.48877 
    3840    1.0447306   -1417.7488    1737.9935    274.97334 
    3850    1.0425311   -1417.1572    1449.8987      274.067 
    3860    1.0402328   -1416.2943    160.59804    307.75488 
    3870    1.0379208   -1415.2481   -821.00216    317.17315 
    3880     1.035667   -1414.4734   -908.80265    307.07326 
    3890     1.033481   -1413.9337   -587.05204    298.58472 
    3900     1.031342   -1413.4467   -241.40324    281.00624 
    3910    1.0292324   -1412.8151   -866.37612    292.80235 
    3920    1.0271918   -1412.0536   -1471.8069    296.52229 
    3930    1.0252604    -1411.202    -1319.574    279.13281 
    3940    1.0234354   -1410.2986   -1382.0065    291.96283 
    3950    1.0217155   -1409.1808   -1239.5738    276.46138 
    3960    1.0200994   -1408.0472   -1701.3117     297.6038 
    3970    1.0186003    -1406.785   -835.11587    286.42719 
    3980    1.0171775   -1405.7376   -956.23115    287.30321 
    3990    1.0158298   -1404.5197   -1511.2692    285.40542 
    4000    1.0145983   -1403.3695   -1937.9549    292.42238 
    4010    1.0135112   -1402.2536   -1960.4951    281.58533 
    4020    1.0125727   -1401.1888   -1850.6872    265.77382 
    4030    1.0117797   -1400.0558   -2571.0393    276.54455 
    4040    1.0111742   -1398.8158   -3005.5805    279.38092 
    4050    1.0107887   -1397.6637   -2961.9587    278.58565 
    4060    1.0106199   -1396.5439   -2742.7754    277.67562 
    4070    1.0106479   -1395.3779   -1923.7771    260.83165 
    4080    1.0108208   -1394.1252   -1554.3184    277.65139 
    4090    1.0111045   -1392.5976   -1132.1499    280.38737 
    4100    1.0114745   -1391.1691   -1087.4672     308.6338 
    4110    1.0119122   -1389.7089    -10.12102    281.89005 
    4120    1.0123615   -1388.4919    -123.1366    307.65261 
    4130    1.0128104   -1387.2199    341.10261     308.0086 
    4140    1.0132335   -1386.1978    854.69859    307.26612 
    4150    1.0135968    -1385.368    865.35526     308.7272 
    4160    1.0138995   -1384.7419    92.307846    323.78571 
    4170    1.0141945   -1384.3908   -510.52193    318.50197 
    4180     1.014522   -1384.5572   -295.71724    322.91281 
    4190    1.0148643   -1384.8287    664.01018    275.70078 
    4200    1.0151705   -1385.0283    27.087313    285.60498 
    4210     1.015475   -1384.9569   -993.80881    294.32099 
    4220    1.0158475   -1384.8674   -1398.7455    302.65388 
    4230    1.0163165   -1384.7788   -936.98014    289.13061 
    4240    1.0168567    -1384.602   -635.38215    285.34012 
    4250    1.0174431   -1384.2269   -615.01372    293.64981 
    4260    1.0180704   -1383.7243   -278.32177    294.82681 
    4270    1.0187176   -1383.1122    112.52544    286.86212 
    4280    1.0193579   -1382.3377    346.07371    286.72922 
    4290    1.0199725   -1381.3607     502.7228    301.66798 
    4300    1.0205491   -1380.2724    563.85592    310.03012 
    4310     1.021082   -1379.2618    848.99488    307.69293 
    4320     1.021555   -1378.3723    786.78892    314.23147 
    4330    1.0219664    -1377.625    1018.3667    309.08545 
    4340    1.0222988   -1376.9919    1686.4081    292.94855 
    4350    1.0225135   -1376.3566    1394.5583    302.73109 
    4360    1.0226216   -1375.5887    1283.1933    290.80986 
    4370    1.0226376   -1374.7183    1006.0995    290.97305 
    4380    1.0225873   -1373.7054   -295.75456    318.85574 
    4390    1.0225471   -1372.6358   -81.470763    284.75223 
    4400    1.0225189   -1371.5274   -233.54173    292.58655 
    4410    1.0225082   -1370.0731   -730.18376    309.25711 
    4420    1.0225513   -1368.6025   -1152.2883    300.89939 
    4430    1.0226765   -1366.9847   -1419.9325    296.39511 
    4440    1.0229072   -1365.2818   -1657.6752    316.15539 
    4450     1.023257   -1363.5087   -1763.5497    324.82623 
    4460    1.0237365    -1362.012   -1558.0023    312.23035 
    4470    1.0243254   -1360.7182    -653.0827    305.06557 
    4480    1.0249611   -1359.3858     170.4078     303.6971 
    4490    1.0255873   -1358.0184    537.61992     304.4779 
    4500    1.0261748   -1356.6137    853.22062    306.91178 
    4510    1.0267002   -1355.1785    1181.3667    286.11068 
    4520     1.027146   -1353.6017     442.6193    303.20421 
    4530    1.0275513   -1351.7276    497.72516    296.21443 
    4540    1.0279304   -1349.8306   -290.38469    317.63835 
    4550     1.028324   -1347.8718   -312.83674    304.25487 
    4560    1.0287408   -1345.9704   -264.81291    307.90057 
    4570    1.0291823   -1344.0903   -980.27426    340.45229 
    4580    1.0296909   -1342.5723   -1240.4121    346.75416 
    4590    1.0302889   -1341.7734    -756.2292    319.73072 
    4600    1.0309491   -1341.4733   -761.94512    330.77723 
    4610    1.0316621   -1341.5633   -512.37566     333.2617 
    4620    1.0324128   -1342.3758    105.73947    335.03421 
    4630     1.033151   -1343.7538    1363.3973    319.21972 
    4640    1.0337944    -1345.705    1826.5431    317.43128 
    4650    1.0343076   -1348.0508    1762.6528    305.75062 
    4660    1.0346944   -1350.8431    1308.6608    310.36181 
    4670    1.0349834   -1354.0411    989.22744    307.50393 
    4680    1.0352044   -1357.5064    118.75845    307.01397 
    4690    1.0354147   -1361.4907    -503.2939    325.77202 
    4700    1.0356507   -1365.5485    178.65266    305.38502 
    4710    1.0358797   -1369.5696    395.68654    309.49802 
    4720    1.0360771    -1373.024    767.26405    288.89942 
    4730    1.0362256   -1375.8912     152.6829    293.41731 
    4740    1.0363625   -1378.3416    -606.8827    311.97827 
    4750    1.0365339   -1380.4821   -51.200961    293.30339 
    4760    1.0367121   -1382.1306    594.63466    284.33214 
    4770    1.0368466   -1383.2111    965.64239     272.5096 
    4780    1.0369208   -1383.9903     189.3049    298.75118 
    4790    1.0369747   -1384.5636   -324.16284    306.39824 
    4800    1.0370503   -1385.3132   -415.22515    311.69566 
    4810    1.0371515   -1385.9918    295.76121    289.36393 
    4820    1.0372366   -1386.7417    345.88877    309.59599 
    4830    1.0372865   -1387.3548    1118.8269    282.43582 
    4840     1.037263   -1387.9844    1056.0877    304.88457 
    4850    1.0371504   -1388.5091    1922.0836     296.1847 
    4860    1.0369024   -1389.0804    2167.2826    286.77746 
    4870    1.0364954   -1389.5337    1991.7574    295.55373 
    4880    1.0359398   -1389.9007    1535.4643    298.97734 
    4890    1.0352736   -1390.3274    610.22841    305.69302 
    4900    1.0345551   -1390.8427    252.25254    306.82111 
    4910    1.0338094   -1391.4108    594.18609    291.19525 
    4920    1.0330232   -1392.0249    157.52406    303.42396 
    4930    1.0322188   -1392.6654    3.6414277    300.16479 
    4940    1.0314093   -1393.2817    10.896235    283.86658 
    4950    1.0306011   -1393.8284   -813.94803    304.11378 
    4960    1.0298438   -1394.5126   -921.73841    310.06328 
    4970    1.0291434   -1395.2503   -109.76608    286.67397 
    4980    1.0284557   -1396.0765    -391.0602    300.85808 
    4990     1.027791   -1396.8923   -529.54756    290.34335 
    5000    1.0271662   -1397.6997   -1176.0916    292.84606 
    5010    1.0266257   -1398.6227   -1919.3954    308.81666 
    5020    1.0262155   -1399.5848   -1682.6047    287.06436 
    5030    1.0259327   -1400.7114   -1902.0935    297.53365 
    5040    1.0257844   -1401.9265   -1890.8449    300.08165 
    5050    1.0257724   -1403.4206   -1615.9992    299.94525 
    5060    1.0258781   -1405.1139   -1145.8162    295.51769 
    5070    1.0260685    -1407.003   -886.38675    296.03413 
    5080    1.0263301   -1409.3139   -1322.4061    317.67009 
    5090    1.0266789   -1412.0319   -544.24616    293.62993 
    5100    1.0270774   -1414.8273   -248.09865    287.14905 
    5110    1.0275039   -1417.7865    -1110.212    301.62764 
    5120      1.02801   -1420.8916   -1426.7457    291.26883 
    5130    1.0286234   -1423.8677   -1284.9656    282.62802 
    5140    1.0293348   -1426.5393   -1034.1998    282.38793 
    5150     1.030126   -1429.0055   -597.16698    285.59126 
    5160    1.0309643   -1431.1023    289.54116    275.17963 
    5170    1.0317881   -1432.6409    1099.0881    263.32624 
    5180    1.0325529   -1433.8934   -67.412191    305.61376 
    5190    1.0333146   -1435.0868    94.079746     296.6093 
    5200     1.034078   -1436.1824    563.66207    283.89251 
    5210    1.0348078    -1437.034     561.6694     286.4896 
    5220    1.0355012   -1437.7121    720.48706     292.4584 
    5230    1.0361437   -1438.2668    1218.8806    293.35794 
    5240    1.0367014   -1438.6849    1773.8304    279.03844 
    5250    1.0371374   -1438.8719    1845.3518    278.97164 
    5260    1.0374419   -1438.8002     1640.889    290.94446 
    5270    1.0376254   -1438.6653     1749.899    302.07889 
    5280    1.0376764   -1438.5355    2342.2587    291.07192 
    5290    1.0375573   -1438.3284     2437.773    284.58939 
    5300    1.0372615   -1438.0035    1907.4398    291.70004 
    5310    1.0368212   -1437.5061    1647.0738    279.28135 
    5320     1.036258   -1436.7626    1011.5515    283.23155 
    5330    1.0356133   -1435.7066    302.40444    300.18339 
    5340    1.0349382   -1434.4886    -118.4533    302.17051 
    5350    1.0342609   -1433.2149    252.73173    280.80415 
    5360    1.0335611   -1431.6695    250.16442    285.20281 
    5370      1.03283   -1429.5969    721.06218    259.05056 
    5380    1.0320505    -1426.877     -309.617    287.22459 
    5390    1.0312739   -1423.0567   -280.15089    275.89563 
    5400    1.0305122   -1418.7793   -88.037261    274.81958 
    5410    1.0297518   -1413.8381   -564.24739    294.71757 
    5420    1.0290183   -1408.5962   -442.72443    293.74667 
    5430    1.0283089   -1404.2908    127.87251    278.40494 
    5440    1.0275869   -1400.6314     -214.792    303.82235 
    5450     1.026867   -1397.7442   -90.390845     296.2599 
    5460     1.026147   -1395.7367    4.6820818    274.68719 
    5470    1.0254204   -1394.0733   -158.33592    283.65292 
    5480    1.0246935   -1392.5705    109.11337    281.25976 
    5490    1.0239476   -1391.1237    419.90209     271.3334 
    5500    1.0231686   -1389.6576   -120.03219    285.71926 
    5510    1.0223861   -1388.0254   -558.44429    290.25985 
    5520    1.0216321   -1386.4025   -520.74382    285.12352 
    5530    1.0209116   -1384.8033   -884.21135    288.43846 
    5540     1.020242   -1383.0253   -973.65287    296.79727 
    5550    1.0196333    -1381.331   -681.02462    295.23146 
    5560    1.0190685   -1379.6193   -868.37748    310.13451 
    5570    1.0185575   -1378.0836   -814.74416    314.31852 
    5580    1.0180963   -1376.8206   -291.72299    302.53237 
    5590    1.0176483   -1375.7076    455.89922    293.61991 
    5600    1.0171671   -1374.5995    299.00006    304.24066 
    5610    1.0166547   -1373.5577     57.85645    329.90325 
    5620    1.0161223   -1372.8419    844.91823    305.17269 
    5630    1.0155265   -1372.4227    572.13121    321.09122 
    5640    1.0148725     -1372.27    1108.8677    310.51109 
    5650    1.0141244   -1372.3057    1887.8981    294.66294 
    5660    1.0132357   -1372.5305    1181.3911     320.0223 
    5670     1.012242   -1372.8639     489.3107    314.72793 
    5680    1.0111968   -1373.5464   -171.25172    320.40681 
    5690    1.0101426   -1374.5042   -132.41456    308.08436 
    5700    1.0090788     -1375.65    212.00717     302.0285 
    5710    1.0079885   -1377.0641   -184.42841    312.77884 
    5720    1.0068902   -1378.4798   -295.09932    292.06477 
    5730    1.0057979   -1380.0506   -467.09574    306.24316 
    5740    1.0047181    -1381.771   -262.05351    306.53744 
    5750    1.0036396   -1383.6389   -104.77367    294.30841 
    5760    1.0025569   -1385.5772   -601.49937    305.64443 
    5770    1.0014905   -1387.5221   -14.457153    286.52159 
    5780    1.0004171   -1389.4565   -334.94763    298.33499 
    5790    0.9993471   -1391.3113   -665.80313    290.69096 
    5800   0.99831252   -1393.0696   -1266.5073    296.14488 
    5810   0.99735392   -1394.8773   -2087.6756    307.12524 
    5820    0.9965295   -1396.6303   -2285.7425    283.95395 
    5830   0.99586035    -1398.202    -2304.795    281.10386 
    5840   0.99534817   -1399.5469   -2134.8854    284.51841 
    5850   0.99498587    -1400.685   -2088.2144    281.83413 
    5860   0.99477484    -1401.755   -2263.1026    296.08151 
    5870   0.99471875     -1402.69    -1597.592    289.38059 
    5880    0.9947781   -1403.6515   -599.02294    285.96364 
    5890   0.99487893   -1404.1838    706.23487    250.33487 
    5900   0.99494305    -1404.383    391.67255    280.42067 
    5910    0.9949723   -1404.1896    471.04345    292.43524 
    5920   0.99496875   -1403.9284    200.76574    302.38439 
    5930   0.99495139   -1403.7223   -289.30673    308.07879 
    5940   0.99494713   -1403.4688    169.27663    279.63705 
    5950   0.99494074   -1403.1858   -407.85365    303.13108 
    5960   0.99495444   -1402.7007   -54.042973    296.61641 
    5970   0.99497521   -1402.2463    94.554536    301.20415 
    5980   0.99498825   -1401.6988    43.336507     304.4135 
    5990   0.99499893   -1401.1688   -15.300156    307.90376 
    6000   0.99500786   -1400.6105    255.83183    303.05198 
    6010   0.99499818   -1400.0931    652.73167    297.76609 
    6020   0.99493677   -1399.3959    1305.3808    278.37014 
    6030   0.99478627   -1398.4103    706.16983    300.85142 
    6040    0.9945775   -1397.0527    65.556849    305.51444 
    6050    0.9943575   -1395.5666   -96.903381    289.61068 
    6060   0.99414029   -1393.8393    -346.7591    304.78556 
    6070   0.99394197   -1391.8131   -493.21163    303.18829 
    6080   0.99378152   -1389.7538    -1301.272    325.54171 
    6090   0.99370666   -1387.7325    -1305.681    304.05749 
    6100   0.99372567   -1385.8993   -722.38828    288.16153 
    6110   0.99380349   -1383.9165   -650.72711    296.28068 
    6120    0.9939333   -1381.7148   -1164.4523    310.68831 
    6130   0.99415024   -1379.6176   -1449.4085    307.85513 
    6140   0.99447446   -1377.5992   -1117.1106    296.41786 
    6150    0.9948879   -1375.7027   -349.00927    291.92256 
    6160   0.99533501   -1373.6262    427.91253    277.20695 
    6170   0.99577337   -1371.4315   -385.96765    311.38435 
    6180   0.99624018    -1369.097   -377.08211     309.6631 
    6190   0.99674309   -1367.0955    181.45538    299.88401 
    6200    0.9972428    -1365.211    662.27553    299.74267 
    6210   0.99770582    -1363.346    739.99768    305.51156 
    6220   0.99812538   -1361.6749    724.90593    308.36555 
    6230   0.99849615   -1360.1098    872.25597    310.35283 
    6240   0.99881355   -1358.8278    504.16831    335.56316 
    6250   0.99909345   -1358.0605    878.08926    336.06062 
    6260   0.99931173   -1357.8535    1715.2693    308.63544 
    6270   0.99941117   -1358.0164    1738.3678    329.25554 
    6280   0.99937922   -1358.5933    1958.4925    325.31661 
    6290   0.99920503   -1359.6926    1686.5976    325.44016 
    6300   0.99890065   -1361.1552     1410.632    310.60959 
    6310   0.99848945    -1362.933    825.00628    316.44289 
    6320   0.99800928    -1365.163   -30.412092    333.75693 
    6330   0.99751832   -1367.9648   -669.82874    327.45653 
    6340   0.99706841   -1371.2697   -1209.1584    327.71324 
    6350   0.99669518   -1375.0744   -1249.5666    328.48007 
    6360   0.99640384    -1378.975   -770.14624    305.84589 
    6370    0.9961666    -1382.457   -635.65187    294.82694 
    6380   0.99597733     -1385.53   -1338.8285    307.61035 
    6390   0.99588102   -1388.2632   -1701.5936    305.01008 
    6400   0.99590758   -1390.4627   -1774.8416    298.63598 
    6410   0.99606903   -1392.4817   -2204.1059     316.7052 
    6420   0.99639103    -1394.201   -1926.1917    299.14175 
    6430    0.9968628   -1395.5879   -1670.4955    288.33851 
    6440   0.99747414   -1396.8248   -2217.3261     315.8017 
    6450   0.99824863   -1397.9143   -1429.3889    285.70113 
    6460   0.99915034   -1398.7329   -930.69471    278.09376 
    6470    1.0001394   -1399.2739   -965.98042    302.18508 
    6480     1.001209   -1399.7783   -56.956623    298.31031 
    6490    1.0023045   -1400.2067      635.749    294.04641 
    6500    1.0033718   -1400.5936    1181.2967    300.31325 
    6510    1.0043701   -1400.8483    1562.9406    288.82888 
    6520     1.005277   -1401.1245    967.19654    306.27373 
    6530    1.0061218   -1401.5029    922.00651    313.84354 
    6540    1.0069092   -1402.0635    1136.7755    307.13216 
    6550    1.0076296   -1402.8451    945.56081    305.04882 
    6560    1.0082886   -1403.5549    852.63158    285.18979 
    6570    1.0089045   -1404.3282   -400.87974    307.01442 
    6580    1.0095526   -1405.0542   -896.99789    289.32016 
    6590    1.0102775   -1405.8367   -1028.3708    292.02723 
    6600    1.0110851   -1406.4567   -737.11449    280.90054 
    6610    1.0119595   -1406.8325   -408.64192    264.17705 
    6620    1.0128819   -1406.8228   -799.33396    278.28042 
    6630    1.0138764   -1406.5063   -1349.0053    287.18315 
    6640    1.0149844   -1406.0708   -1555.4387    289.93477 
    6650     1.016217   -1405.3697    -1186.744    281.06631 
    6660    1.0175549   -1404.4444   -737.74576    280.60632 
    6670    1.0189655   -1403.1313    -380.3795    288.22206 
    6680     1.020418   -1401.4325    390.49481    284.93934 
    6690    1.0218608   -1399.4038    1036.1433    290.94436 
    6700    1.0232458   -1396.9204     1312.514    286.29681 
    6710    1.0245591   -1394.2172     601.0569    305.91124 
    6720    1.0258366   -1391.2324     508.5902    293.97109 
    6730    1.0271015   -1388.3313   -534.10945    329.38286 
    6740    1.0284049   -1385.4414   -57.865859    319.41733 
    6750    1.0297286   -1383.1266    591.49674    321.11549 
    6760    1.0310156   -1381.0028    1879.7673    292.40987 
    6770    1.0321891   -1379.1202    1725.1774    306.55006 
    6780     1.033245   -1377.2304    1301.8642    312.09688 
    6790    1.0342132    -1375.618    1190.9212     316.7773 
    6800    1.0350992   -1374.3267    1679.7554    308.33128 
    6810    1.0358703   -1373.2656    2056.1208    301.43286 
    6820    1.0364988   -1372.3231     1835.193    313.87133 
    6830    1.0369953   -1371.5624    1692.5561    311.03491 
    6840    1.0373719   -1371.0906    1510.6513    316.64969 
    6850    1.0376386   -1370.8883    1328.4532    319.84764 
    6860    1.0378074    -1370.963    1633.5498    301.27084 
    6870      1.03786   -1371.1872     1553.599    310.48062 
    6880    1.0377948    -1371.685    1494.4839    323.36924 
    6890    1.0376141   -1372.4266    1875.1071    296.57482 
    6900    1.0373014   -1373.3228    1531.9815    299.46214 
    6910    1.0368733   -1374.3715    1085.2133    318.25555 
    6920     1.036359   -1375.8878    974.21701    323.84424 
    6930    1.0357671   -1378.0378    1049.6367    312.55341 
    6940    1.0350895   -1380.6633    1530.9669    294.15216 
    6950    1.0342984   -1383.7157    1391.8213    298.35759 
    6960    1.0334025   -1387.5444    646.55146    308.92063 
    6970    1.0324492   -1391.7964    272.96203    287.24203 
    6980    1.0314748   -1396.4908   -661.61732    298.43646 
    6990    1.0305365   -1401.2866   -1036.2488    299.08499 
    7000    1.0296662   -1405.9555   -1115.1276    293.29035 
    7010    1.0288722   -1409.8506   -1056.1575    288.02168 
    7020    1.0281512   -1413.0766   -1038.8597    290.03002 
    7030    1.0274996    -1415.314   -647.37741     273.3764 
    7040    1.0268945   -1416.9033    -803.6396     292.9752 
    7050    1.0263404   -1417.9579   -487.54378    276.96682 
    7060    1.0258217   -1418.6142   -307.69593     284.3524 
    7070    1.0253168   -1418.9538    215.80326    286.04991 
    7080    1.0247946   -1419.1248    520.72551      281.418 
    7090    1.0242329    -1419.039    341.90267    286.20954 
    7100    1.0236436   -1418.8549   -42.365806    304.71719 
    7110    1.0230456   -1418.6433    509.84566     287.1863 
    7120    1.0224122   -1418.4319    479.25005    288.93197 
    7130    1.0217367   -1418.0462    784.50802    278.86707 
    7140     1.020999   -1417.4432    1115.6402    275.32045 
    7150    1.0201817   -1416.5436     258.5378    291.43137 
    7160    1.0193425   -1415.4907   -874.59813    311.11268 
    7170    1.0185505   -1414.4542   -325.57602    288.11802 
    7180    1.0177805   -1413.4852    283.66083    273.61776 
    7190    1.0169897    -1412.186    218.38812    282.10768 
    7200    1.0161785   -1410.6616    149.52898    294.58142 
    7210    1.0153484   -1408.8772    368.73741    263.49177 
    7220    1.0144976   -1406.9803   -613.58358    293.21062 
    7230     1.013673   -1404.4756   -368.68872    288.55085 
    7240    1.0128828   -1402.1621   -1001.3753    302.72778 
    7250    1.0121551     -1399.61   -1224.4224    317.68916 
    7260    1.0115095   -1397.5206    -539.1757    306.70424 
    7270       1.0109   -1395.7022    63.399697    294.31898 
    7280    1.0102822     -1394.01    805.46361    278.10877 
    7290    1.0096082    -1392.259    620.43321    295.78882 
    7300      1.00888   -1390.3102    561.72395    305.85234 
    7310    1.0081112   -1388.6569    218.33503    308.96071 
    7320    1.0073181   -1387.0913    7.8243105    306.55478 
    7330    1.0065218   -1385.9123   -144.95003    333.35122 
    7340    1.0057191   -1385.0604    981.86611     303.3871 
    7350    1.0048509   -1384.6222    1069.8979    301.19207 
    7360    1.0038994   -1384.1126    848.93477    291.97646 
    7370      1.00289    -1383.685   -621.01564    325.72952 
    7380    1.0019091   -1383.3393   -583.23086    295.50243 
    7390    1.0009742   -1383.1942   -1134.9756     304.2897 
    7400    1.0001166   -1382.9725   -1573.2592    296.90555 
    7410     0.999372   -1382.8324   -1896.4432    304.36221 
    7420   0.99875577   -1382.6961   -1233.8221    291.20984 
    7430   0.99823035   -1382.5747   -815.87487    290.13266 
    7440   0.99776025   -1382.2994   -280.28671     281.2361 
    7450    0.9973091   -1381.8193    32.785447    279.03882 
    7460   0.99685575   -1381.0104    -134.7236    284.60109 
    7470   0.99640987   -1379.8992   -162.23692    282.91894 
    7480    0.9959736    -1378.467   -371.91223    292.76048 
    7490   0.99556375   -1376.6176   -977.79759    316.25976 
    7500   0.99521356   -1374.6479   -43.893361      301.404 
    7510   0.99487161   -1372.5402   -19.185617    317.54447 
    7520   0.99453233   -1370.1426   -499.63384    318.29148 
    7530   0.99422795   -1367.7048   -863.85019    326.25626 
    7540     0.993981   -1365.1216   -775.41455    334.42526 
    7550    0.9937875   -1362.7309   -394.31084    334.18012 
    7560   0.99362152   -1360.4637   -208.00205    339.67475 
    7570   0.99347191   -1358.6094   -111.51798    348.30413 
    7580   0.99332357   -1357.1772    610.60759    330.25588 
    7590   0.99313624    -1356.398    648.61782    352.06276 
    7600   0.99288674   -1356.2156    1896.0659    328.07429 
    7610   0.99250555   -1356.7634    2099.7069    334.12589 
    7620   0.99196635   -1357.9094     1792.895    334.35274 
    7630   0.99129983   -1360.0237    870.88725    341.91072 
    7640    0.9905541   -1362.8065    1144.6947    310.49707 
    7650   0.98973395   -1366.4386   -2.6941744    345.97543 
[...]
  496980    1.0221692    -1403.771   -77.922202    291.08023 
  496990    1.0220289   -1402.2712    376.96784    275.79288 
  497000    1.0218623    -1400.649    272.09662    285.46698 
  497010    1.0216733   -1398.8108   -116.55283    288.51574 
  497020    1.0214854   -1396.8853     25.30466     283.8623 
  497030    1.0212972   -1394.9773   -399.06205    289.73901 
  497040    1.0211319    -1392.879   -723.80985    286.49059 
  497050    1.0210152   -1390.8694   -522.16923    290.92456 
  497060    1.0209305   -1388.8476    31.115749    282.56476 
  497070    1.0208426   -1386.8463    427.58867    270.33659 
  497080    1.0207275   -1384.7434   -37.597836    285.64629 
  497090    1.0206111   -1382.4744   -397.45444    289.99579 
  497100     1.020522   -1380.4308   -484.28785    302.63607 
  497110    1.0204601   -1378.5237    274.63748    282.46249 
  497120    1.0203824   -1376.8973    471.38675    288.27444 
  497130     1.020265   -1375.1945    484.29013     286.9631 
  497140    1.0201126   -1373.7066    79.936575    311.68275 
  497150    1.0199387   -1372.3429    879.81536    298.78133 
  497160    1.0197034   -1371.3223    934.57409    299.25926 
  497170    1.0193939   -1370.3984    667.79434    302.81538 
  497180    1.0190256   -1369.6586    819.46119    299.94575 
  497190    1.0185928   -1369.0121    313.17679    312.75548 
  497200     1.018128   -1368.6731   -191.06079    319.04686 
  497210    1.0176624   -1368.5502   -82.548524    302.51617 
  497220    1.0171944   -1368.5726    96.008773    294.05995 
  497230    1.0167162   -1368.5622   -469.64021    303.41276 
  497240    1.0162601   -1368.6416   -1114.1073    317.62847 
  497250    1.0158699   -1368.8823    -642.9029    293.22279 
  497260    1.0155223   -1369.1442   -499.76156    292.07824 
  497270    1.0152071   -1369.2773   -773.49805     292.2927 
  497280    1.0149435   -1369.4137   -1240.2339    303.78808 
  497290    1.0147588   -1369.4858   -726.32999    280.69176 
  497300    1.0146291   -1369.4202   -486.37516    277.83582 
  497310    1.0145335   -1369.0311   -680.18758    283.08563 
  497320    1.0144833   -1368.4137    -559.6327    280.18948 
  497330    1.0144754   -1367.5638   -575.15343    282.35286 
  497340    1.0145077   -1366.3109   -543.36283    278.19202 
  497350     1.014588    -1364.864   -1104.0115    311.13535 
  497360    1.0147387   -1363.1641   -333.29406    286.67242 
  497370    1.0149265    -1361.454   -473.16726    293.66255 
  497380    1.0151498    -1359.357   -521.38955     303.4524 
  497390    1.0154119   -1357.1653     137.4425    297.06044 
  497400    1.0156683   -1354.7839    809.80345    293.45658 
  497410    1.0158739   -1352.1616    817.12962    301.88073 
  497420    1.0160238   -1349.2667    438.54922    305.43811 
  497430    1.0161412   -1346.2772    394.96654    314.48915 
  497440    1.0162272   -1343.3174    954.66751    311.83603 
  497450    1.0162469   -1340.5675    1144.5108    306.31827 
  497460    1.0161885   -1337.8643    419.46072    310.82237 
  497470    1.0160996    -1335.351    -445.9358    329.55575 
  497480    1.0160336   -1333.1703    -340.5661    330.71759 
  497490    1.0159872   -1331.5389    344.64522    320.70699 
  497500    1.0159224   -1330.4171    63.604569    327.82509 
  497510    1.0158504   -1329.7208   -305.62173    329.71539 
  497520    1.0157971   -1329.5038   -420.94031    323.29723 
  497530    1.0157734   -1329.7431   -295.04771    316.26722 
  497540    1.0157665   -1330.2307    447.00579    308.69607 
  497550    1.0157288   -1331.0445    649.52079    317.69861 
  497560    1.0156411   -1332.0935    543.79324    304.39448 
  497570    1.0155146   -1333.3764    36.769955    304.33804 
  497580    1.0153815   -1334.8179   -329.11307    303.41147 
  497590    1.0152699   -1336.5771   -713.99623    309.61312 
  497600    1.0152092   -1338.8525   -1050.7584    312.79196 
  497610    1.0152275   -1341.8967    -1797.741    325.75808 
  497620    1.0153759   -1346.2138   -2120.4129    317.46326 
  497630    1.0156792    -1351.301   -1561.2359    299.27176 
  497640    1.0161007   -1357.0786   -852.09178    292.63969 
  497650    1.0165979   -1362.6014   -686.86552    281.67531 
  497660    1.0171564   -1367.5292   -1004.9864    290.46326 
  497670    1.0177917   -1371.4161   -460.68167    279.92399 
  497680    1.0184689   -1373.9294    586.95347    265.54272 
  497690     1.019119    -1375.518    997.71149    282.03803 
  497700    1.0197038   -1376.4533    1168.3275    282.33678 
  497710    1.0202142   -1377.0294    853.55254    284.20147 
  497720    1.0206693   -1377.2807    551.21412    277.51606 
  497730    1.0210925   -1377.2375     105.8918    276.75654 
  497740    1.0215113   -1376.9333    20.367768    284.19549 
  497750    1.0219318   -1376.4868    232.12724    296.15799 
  497760    1.0223398   -1375.9718    578.21502    290.44825 
  497770    1.0227127   -1375.3876    776.01462    288.64104 
  497780    1.0230317   -1374.7589    915.88535    310.80446 
  497790    1.0232794   -1374.1661    1808.9185    293.91714 
  497800    1.0234036   -1373.6341    1849.2453    298.28333 
  497810     1.023395   -1373.1296    1271.4317    316.91703 
  497820    1.0232873    -1372.817    1119.1835    311.39886 
  497830    1.0230995    -1372.765    399.91288    314.97657 
  497840     1.022877   -1372.8487    139.25588    300.46129 
  497850    1.0226443   -1373.1055   -486.27841    312.96391 
  497860    1.0224385   -1373.4035   -516.33412    288.71589 
  497870    1.0222748   -1373.7381   -1012.2334    293.31799 
  497880    1.0221787   -1373.9094   -1194.6113    295.86516 
  497890    1.0221776   -1374.2188   -2156.7198    317.56918 
  497900    1.0223284   -1374.6482   -2283.6001    302.43236 
  497910    1.0226501   -1375.3586   -2031.4597    302.93695 
  497920    1.0231148   -1375.9733   -712.70205    280.89578 
  497930     1.023645   -1376.5678   -359.40287    289.51952 
  497940    1.0242118   -1377.0148   -896.43471    292.76874 
  497950    1.0248491   -1377.4057   -1255.0411    294.56701 
  497960    1.0255835   -1377.7538   -935.85624    285.94971 
  497970    1.0263965   -1377.9976   -737.11807    289.98263 
  497980    1.0272698   -1378.0482   -586.64729    282.28658 
  497990    1.0282042   -1378.0185   -1478.9782    299.77022 
  498000     1.029251   -1377.9405   -1744.0851    303.93438 
  498010    1.0304378   -1377.9935   -1649.9195    296.41178 
  498020    1.0317584   -1378.0146   -1514.5036    288.66933 
  498030    1.0332016   -1377.8966   -1130.7514    289.24382 
  498040    1.0347429   -1377.6516   -882.77913    304.86329 
  498050    1.0363636   -1377.3881   -628.62635    306.47111 
  498060     1.038042   -1377.1904    22.386504    309.68769 
  498070     1.039733   -1377.1001    463.04245    312.65813 
  498080    1.0414039   -1377.1468    708.87622    302.17083 
  498090    1.0430378   -1377.4185    831.98508    312.88928 
  498100    1.0446127   -1377.6549    1944.8363    281.15318 
  498110    1.0460681   -1377.8479    1613.7151    295.41311 
  498120    1.0474133   -1377.9964    1027.6166    305.64769 
  498130    1.0486935   -1378.3572    370.06731    306.74385 
  498140    1.0499551   -1378.8609   -325.14374    300.92656 
  498150    1.0512493    -1379.667   -947.62411    320.52017 
  498160    1.0526065   -1380.7053    79.265673    299.87363 
  498170    1.0539689   -1381.9118    916.56197    296.94103 
  498180    1.0552688   -1383.1313    1670.6521    290.93713 
  498190    1.0564529   -1384.2889    2260.8064    280.27072 
  498200    1.0574834   -1385.3851    1898.6186    294.74335 
  498210    1.0583775   -1386.5066    1373.7057     296.1539 
  498220    1.0591809   -1387.9155    284.27755    315.72626 
  498230    1.0599555   -1389.6127    364.64013    309.95389 
  498240    1.0607048   -1391.6226    943.70893     298.1017 
  498250    1.0613909   -1393.6103    1215.8025    288.14281 
  498260    1.0619966   -1395.7093    576.40046    303.77821 
  498270     1.062561    -1397.965    130.60265    293.87302 
  498280    1.0631168   -1400.1032   -17.739718    285.48329 
  498290    1.0636744   -1402.1165    9.1111033    283.82969 
  498300    1.0642349   -1404.0685   -33.630139    297.19156 
  498310    1.0647892   -1405.8735    1050.9595    281.30043 
  498320    1.0652722   -1407.4215    1933.5984    271.86301 
  498330    1.0656173   -1408.5392    2049.6889    269.57898 
  498340    1.0658149   -1409.3938       1631.3    282.65158 
  498350     1.065887   -1410.0127    1809.2802    282.23019 
  498360    1.0658282   -1410.4003    1732.2915    276.47301 
  498370    1.0656472   -1410.6135    860.08289    298.50904 
  498380    1.0653938   -1410.6907      787.016    289.92686 
  498390    1.0650849   -1410.7816    629.47708    297.46094 
  498400    1.0647219   -1410.7782    857.90962    298.25982 
  498410    1.0642961   -1410.7819    1019.3225    285.93171 
  498420    1.0637956   -1410.6458    937.34331    282.82746 
  498430    1.0632209   -1410.2969    1096.0459    289.61912 
  498440    1.0625596   -1409.6577    1500.6728    282.44385 
  498450     1.061789   -1408.8733    1451.9295    305.07736 
  498460    1.0608993    -1407.805    2139.9244    287.70508 
  498470    1.0598576   -1406.6636     1755.155    306.13547 
  498480     1.058675   -1405.1169    2049.8657    278.33827 
  498490    1.0573487   -1403.3678    1440.5478    291.10551 
  498500    1.0559088   -1400.8916    1073.8891    280.92803 
  498510    1.0543906   -1397.9592    343.23126    301.82371 
  498520     1.052836   -1394.3854    496.72287    292.39722 
  498530    1.0512471   -1390.8501    206.02093      299.409 
  498540    1.0496378   -1386.9495   -178.58888    307.44153 
  498550    1.0480386   -1383.3696   -67.619177    299.23144 
  498560    1.0464404   -1380.1528    261.29923    301.53988 
  498570    1.0448208    -1377.237    447.05478    315.66565 
  498580    1.0431653   -1374.8978    741.17801     303.8156 
  498590    1.0414599   -1372.9874    214.76645    291.95878 
  498600    1.0397439   -1371.2541    -909.6329    309.49362 
  498610    1.0380872   -1369.6986   -1021.0932    298.74883 
  498620    1.0365041   -1368.4109   -681.69617    281.35236 
  498630     1.034977   -1367.1246   -967.21469    287.06331 
  498640    1.0335235   -1365.7309   -1711.2958    303.80814 
  498650    1.0321904   -1364.3569   -1875.2688    291.45099 
  498660    1.0309974   -1363.1656     -2104.26    307.38124 
  498670    1.0299565   -1362.0439   -1972.9081    302.46976 
  498680    1.0290607   -1361.0907   -1903.0733    310.62707 
  498690    1.0283036   -1360.4283   -1583.5908    315.12963 
  498700    1.0276544   -1359.9189    -249.8398    285.18032 
  498710    1.0270304    -1359.563     96.48053    311.52624 
  498720    1.0263931   -1359.1535    697.53166    294.63295 
  498730     1.025711   -1358.9205    846.19243    303.89055 
  498740      1.02496   -1358.7075    1628.9844    302.67217 
  498750    1.0240933   -1358.6777    1695.2953    303.71794 
  498760    1.0231031   -1358.5857     1404.632    279.83049 
  498770    1.0220224   -1358.4058   -344.38797    317.88356 
  498780    1.0209573   -1358.2259   -957.72912    318.14295 
  498790    1.0199619   -1358.3894   -1058.5297    314.93962 
  498800    1.0190393   -1358.8618   -680.04924    313.17371 
  498810    1.0181664   -1359.5575   -51.264268    287.35696 
  498820    1.0173035   -1360.2023   -397.24616    292.25195 
  498830    1.0164719    -1360.868   -1283.7725    315.24042 
  498840    1.0157295   -1361.8512   -1443.4898    312.13526 
  498850    1.0150893   -1363.1588   -1026.3026    296.15848 
  498860    1.0145251   -1364.6282   -731.17405    284.91762 
  498870    1.0140154   -1366.1753   -822.24253    290.29466 
  498880    1.0135637   -1367.8252   -790.33636    280.13466 
  498890    1.0131726   -1369.3988   -1021.8718    278.52711 
  498900    1.0128554   -1371.1336   -1484.1141    297.99673 
  498910    1.0126455    -1373.096   -1676.8413    292.16193 
  498920    1.0125555   -1375.2494   -1406.2416     279.4725 
  498930    1.0125708   -1377.3805   -1344.7816     280.5578 
  498940    1.0126881   -1379.6149   -1931.1966    286.37439 
  498950    1.0129422   -1381.7709   -1782.2183    269.48915 
  498960    1.0133282   -1383.7674   -1572.2795    273.20262 
  498970    1.0138299   -1385.5499   -1467.5374    270.77357 
  498980    1.0144441   -1387.1032   -1855.9936    273.57336 
  498990    1.0151977   -1388.4571   -2425.0219    275.26814 
  499000    1.0161269   -1389.5573   -2333.7522    271.03617 
  499010    1.0172306   -1390.4439   -2234.5783    284.44587 
  499020    1.0184972    -1391.151   -1700.8865    276.64377 
  499030    1.0198942   -1391.5957   -1157.9594    267.98598 
  499040    1.0213805    -1391.602   -801.73138    264.86378 
  499050    1.0229344   -1391.1784   -924.24975    267.27723 
  499060    1.0245586   -1390.2535   -936.98226    271.48996 
  499070    1.0262508   -1388.7128   -601.13054    269.62199 
  499080    1.0279983   -1386.7238   -939.60651    304.87833 
  499090    1.0298038   -1384.1993    297.88494    272.09074 
  499100    1.0316015   -1381.4594    621.67597    287.56404 
  499110    1.0333506   -1378.1239    1230.9654    278.05691 
  499120     1.035017   -1374.5717    1114.5119    299.06162 
  499130      1.03659   -1370.7924    2255.6204    284.50002 
  499140     1.038007    -1367.267    2534.0589    294.75124 
  499150    1.0392411    -1363.882    1990.0383    312.38029 
  499160    1.0403258   -1361.0083    1671.4612    314.45731 
  499170    1.0412877   -1358.8302    1408.1562    321.44609 
  499180    1.0421476   -1357.3008    873.86619    329.30339 
  499190    1.0429375   -1356.4309     933.8798    326.50781 
  499200    1.0436564   -1356.0964    1312.8462    317.61241 
  499210    1.0442785   -1356.1461    1597.8694    321.50025 
  499220    1.0447783   -1356.4358      2218.21    311.60818 
  499230    1.0451212   -1357.0503    2113.8844    326.14068 
  499240    1.0453027   -1358.0005    2260.8186    325.92613 
  499250    1.0453176   -1359.3447     2386.218    317.56645 
  499260    1.0451598   -1360.8084    2061.3063    309.74155 
  499270    1.0448569   -1362.7465    1090.0404    338.95083 
  499280    1.0444606    -1364.912    1522.2916    312.81971 
  499290    1.0439581   -1367.2172    1517.6578    307.37456 
  499300    1.0433403   -1369.4374    1787.5777    303.83682 
  499310    1.0425954   -1371.7307    1331.4009    314.61297 
  499320    1.0417499    -1374.069    1183.5173    307.56255 
  499330    1.0408146   -1376.2061    1555.1207    289.27526 
  499340    1.0397751   -1378.3058    666.93076    319.66382 
  499350    1.0386742   -1380.2823    1043.8752    293.27956 
  499360     1.037505   -1382.1166    1074.0325    293.68237 
  499370    1.0362576    -1383.664    991.91053    289.26455 
  499380    1.0349416   -1384.9761    690.72036    288.35078 
  499390    1.0335782   -1386.0521    128.13955     292.4989 
  499400    1.0322024   -1386.8461    302.01263    278.71278 
  499410    1.0308093   -1387.3981    339.35608    278.88903 
  499420    1.0293932   -1387.6315    348.59081    274.92871 
  499430    1.0279584   -1387.5497   -179.10178    285.98647 
  499440    1.0265374   -1387.2667   -503.34022    297.40896 
  499450    1.0251543   -1386.9279   -362.04644    287.88579 
  499460    1.0238022   -1386.4902   -369.45188    284.64891 
  499470    1.0224834   -1385.8994   -645.48798    289.32196 
  499480     1.021214   -1385.1426   -906.83433    296.41778 
  499490    1.0200145   -1384.3688   -1237.1105    308.63598 
  499500    1.0189054   -1383.6444   -1149.0175    290.42437 
  499510    1.0178852   -1382.8684   -1121.0261    271.20731 
  499520    1.0169565   -1381.8636   -1903.9266    309.41115 
  499530    1.0161578   -1380.7239   -1310.2213    296.48539 
  499540    1.0154587   -1379.6842   -667.12852    275.46682 
  499550    1.0148159   -1378.3718   -920.58636    293.13012 
  499560    1.0142443   -1376.9256   -1530.5902    317.78585 
  499570    1.0137776   -1375.4191   -1438.3874    303.76305 
  499580    1.0134241   -1374.1729   -1647.1897    299.50564 
  499590    1.0131865   -1372.7283   -1672.7491    308.10616 
  499600    1.0130708   -1371.3401   -1441.6815    307.65542 
  499610     1.013062   -1369.9194   -1491.5445    305.97866 
  499620    1.0131648   -1368.4463   -1879.3836    306.11734 
  499630    1.0134075   -1366.9265   -2356.4284    307.26129 
  499640    1.0138177   -1365.2241   -2136.3815    301.83137 
  499650    1.0143846    -1363.283   -1798.3965    312.40166 
  499660      1.01508   -1360.9356   -1309.7439    318.40612 
  499670    1.0158684   -1358.4387   -326.29759    305.41276 
  499680    1.0166816   -1355.5911    318.51648    292.98801 
  499690    1.0174786   -1352.1488   -165.16141    319.38458 
  499700    1.0182841   -1348.1894   -373.48434    329.04573 
  499710    1.0191172   -1344.3121   -410.36524    352.99261 
  499720    1.0199736   -1340.9283    346.34335    333.15352 
  499730    1.0208075   -1338.2476    862.58709    319.64215 
  499740    1.0215787   -1335.9901    1155.6434    340.69506 
  499750    1.0222589   -1334.1433    1824.9555    319.55904 
  499760    1.0228152   -1332.8562    1411.9958    314.70709 
  499770    1.0232692   -1331.8295     817.3658    319.74985 
  499780    1.0236598   -1331.1063    572.37302    318.22085 
  499790    1.0240109   -1330.7094    39.326749    316.97019 
  499800    1.0243587    -1330.651   -267.31631    319.13372 
  499810    1.0247226   -1330.8563   -130.41343    314.23355 
  499820    1.0250977   -1331.3897   -292.50059    319.05337 
  499830    1.0254914   -1332.3014   -232.42162    316.24204 
  499840    1.0259004   -1333.5137    42.858143    302.46825 
  499850    1.0263089   -1335.0065     204.6598    314.30231 
  499860    1.0266989   -1336.8998    480.60112    310.71115 
  499870    1.0270569   -1339.1449      268.859    307.33777 
  499880    1.0273935    -1341.908    22.882895    318.07027 
  499890    1.0277267   -1345.2877    40.672156    316.32575 
  499900    1.0280578   -1349.1827   -136.04595    315.41233 
  499910    1.0283999   -1353.3871   -591.90869    309.19517 
  499920    1.0287858   -1357.5833   -966.02247     302.1001 
  499930    1.0292442    -1361.635   -1319.6955    306.65057 
  499940    1.0297951   -1365.0947   -1286.9829    292.59004 
  499950    1.0304455    -1368.161   -1619.9483    310.03866 
  499960    1.0312069   -1370.6184   -1007.4072    293.83624 
  499970    1.0320482   -1372.6338   -688.95114    295.80442 
  499980    1.0329384   -1374.1797    4.7613707    291.37694 
  499990     1.033833   -1375.2896    -4.263602    291.09696 
  500000    1.0347336   -1376.1822   -783.79005    291.24732 
Loop time of 2342.11 on 3 procs for 500000 steps with 375 atoms

Performance: 18.445 ns/day, 1.301 hours/ns, 213.482 timesteps/s
99.5% CPU use with 3 MPI tasks x 1 OpenMP threads

MPI task timing breakdown:
Section |  min time  |  avg time  |  max time  |%varavg| %total
---------------------------------------------------------------
Pair    | 1474.8     | 1709.9     | 2019       | 552.0 | 73.01
Bond    | 0.45963    | 0.49984    | 0.57917    |   7.9 |  0.02
Neigh   | 54.936     | 54.952     | 54.969     |   0.2 |  2.35
Comm    | 132.88     | 442.08     | 677.24     |1085.9 | 18.88
Output  | 1.2278     | 2.0293     | 3.6253     |  79.2 |  0.09
Modify  | 124.68     | 126.58     | 127.65     |  12.0 |  5.40
Other   |            | 6.107      |            |       |  0.26

Nlocal:    125 ave 126 max 123 min
Histogram: 1 0 0 0 0 0 0 0 0 2
Nghost:    6367.33 ave 6389 max 6347 min
Histogram: 1 0 0 0 1 0 0 0 0 1
Neighs:    74435.7 ave 81473 max 67036 min
Histogram: 1 0 0 0 0 1 0 0 0 1

Total # of neighbors = 223307
Ave neighs/atom = 595.485
Ave special neighs/atom = 2
Neighbor list builds = 17347
Dangerous builds = 0

#write_restart wat.restart
Total wall time: 0:39:31
